 Entering Gaussian System, Link 0=g09
 Input=template.gjf
 Output=template.out
 Initial command:
 /share/sw/non-free/gaussian/g09/l1.exe "/local-scratch/ekwan16/7332210/ekwan/Gau-74332.inp" -scrdir="/local-scratch/ekwan16/7332210/ekwan/"
 Entering Link 1 = /share/sw/non-free/gaussian/g09/l1.exe PID=     74333.
  
 Copyright (c) 1988,1990,1992,1993,1995,1998,2003,2009,2013,
            Gaussian, Inc.  All Rights Reserved.
  
 This is part of the Gaussian(R) 09 program.  It is based on
 the Gaussian(R) 03 system (copyright 2003, Gaussian, Inc.),
 the Gaussian(R) 98 system (copyright 1998, Gaussian, Inc.),
 the Gaussian(R) 94 system (copyright 1995, Gaussian, Inc.),
 the Gaussian 92(TM) system (copyright 1992, Gaussian, Inc.),
 the Gaussian 90(TM) system (copyright 1990, Gaussian, Inc.),
 the Gaussian 88(TM) system (copyright 1988, Gaussian, Inc.),
 the Gaussian 86(TM) system (copyright 1986, Carnegie Mellon
 University), and the Gaussian 82(TM) system (copyright 1983,
 Carnegie Mellon University). Gaussian is a federally registered
 trademark of Gaussian, Inc.
  
 This software contains proprietary and confidential information,
 including trade secrets, belonging to Gaussian, Inc.
  
 This software is provided under written license and may be
 used, copied, transmitted, or stored only in accord with that
 written license.
  
 The following legend is applicable only to US Government
 contracts under FAR:
  
                    RESTRICTED RIGHTS LEGEND
  
 Use, reproduction and disclosure by the US Government is
 subject to restrictions as set forth in subparagraphs (a)
 and (c) of the Commercial Computer Software - Restricted
 Rights clause in FAR 52.227-19.
  
 Gaussian, Inc.
 340 Quinnipiac St., Bldg. 40, Wallingford CT 06492
  
  
 ---------------------------------------------------------------
 Warning -- This program may not be used in any manner that
 competes with the business of Gaussian, Inc. or will provide
 assistance to any competitor of Gaussian, Inc.  The licensee
 of this program is prohibited from giving any competitor of
 Gaussian, Inc. access to this program.  By using this program,
 the user acknowledges that Gaussian, Inc. is engaged in the
 business of creating and licensing software in the field of
 computational chemistry and represents and warrants to the
 licensee that it is not a competitor of Gaussian, Inc. and that
 it will not use this program in any manner prohibited above.
 ---------------------------------------------------------------
  

 Cite this work as:
 Gaussian 09, Revision D.01,
 M. J. Frisch, G. W. Trucks, H. B. Schlegel, G. E. Scuseria, 
 M. A. Robb, J. R. Cheeseman, G. Scalmani, V. Barone, B. Mennucci, 
 G. A. Petersson, H. Nakatsuji, M. Caricato, X. Li, H. P. Hratchian, 
 A. F. Izmaylov, J. Bloino, G. Zheng, J. L. Sonnenberg, M. Hada, 
 M. Ehara, K. Toyota, R. Fukuda, J. Hasegawa, M. Ishida, T. Nakajima, 
 Y. Honda, O. Kitao, H. Nakai, T. Vreven, J. A. Montgomery, Jr., 
 J. E. Peralta, F. Ogliaro, M. Bearpark, J. J. Heyd, E. Brothers, 
 K. N. Kudin, V. N. Staroverov, T. Keith, R. Kobayashi, J. Normand, 
 K. Raghavachari, A. Rendell, J. C. Burant, S. S. Iyengar, J. Tomasi, 
 M. Cossi, N. Rega, J. M. Millam, M. Klene, J. E. Knox, J. B. Cross, 
 V. Bakken, C. Adamo, J. Jaramillo, R. Gomperts, R. E. Stratmann, 
 O. Yazyev, A. J. Austin, R. Cammi, C. Pomelli, J. W. Ochterski, 
 R. L. Martin, K. Morokuma, V. G. Zakrzewski, G. A. Voth, 
 P. Salvador, J. J. Dannenberg, S. Dapprich, A. D. Daniels, 
 O. Farkas, J. B. Foresman, J. V. Ortiz, J. Cioslowski, 
 and D. J. Fox, Gaussian, Inc., Wallingford CT, 2013.
 
 ******************************************
 Gaussian 09:  ES64L-G09RevD.01 24-Apr-2013
                 3-Feb-2016 
 ******************************************
 %mem=256GB
 %nprocshared=32
 Will use up to   32 processors via shared memory.
 ----------------------------------------------------------------------
 #p m062x/6-31g* scrf=(pcm,solvent=toluene) opt=modredundant pop=none g
 eom=connect
 ----------------------------------------------------------------------
 1/14=-1,18=120,19=15,26=3,38=1,57=2/1,3;
 2/9=110,12=2,17=6,18=5,40=1/2;
 3/5=1,6=6,7=1,11=2,16=1,25=1,30=1,70=2201,71=1,72=13,74=-55/1,2,3;
 4//1;
 5/5=2,38=5,53=13/2;
 7//1,2,3,16;
 1/14=-1,18=20,19=15,26=3/3(2);
 2/9=110/2;
 99//99;
 2/9=110/2;
 3/5=1,6=6,7=1,11=2,16=1,25=1,30=1,70=2205,71=1,72=13,74=-55/1,2,3;
 4/5=5,16=3,69=1/1;
 5/5=2,38=5,53=13/2;
 7//1,2,3,16;
 1/14=-1,18=20,19=15,26=3/3(-5);
 2/9=110/2;
 99/9=1/99;
 Leave Link    1 at Wed Feb  3 21:41:01 2016, MaxMem= 34359738368 cpu:         1.6
 (Enter /share/sw/non-free/gaussian/g09/l101.exe)
 -------------------
 Title Card Required
 -------------------
 Symbolic Z-matrix:
 Charge =  0 Multiplicity = 1
 Ti                    0.09911  -1.24252  -0.27109 
 C                    -2.40745  -2.76162  -0.55293 
 C                    -2.75549  -1.44877  -1.33916 
 O                    -1.03589  -2.67384  -0.27285 
 N                    -1.88469  -0.41208  -0.74799 
 C                    -2.28833   0.80245  -0.58204 
 C                    -1.46807   1.92209  -0.20465 
 C                    -0.04257   1.83438  -0.18606 
 C                    -2.12917   3.14577   0.01398 
 C                     0.6918    3.06059  -0.07079 
 C                    -1.43431   4.32126   0.24669 
 C                    -0.02994   4.23217   0.17003 
 O                     0.54894   0.66168  -0.31556 
 Cl                    0.71298  -1.19052  -2.71645 
 O                     1.59021  -2.32717  -0.15993 
 C                     2.72804  -2.61846  -0.84133 
 C                     3.43476  -1.38942  -1.33111 
 C                     4.64276  -1.39591  -2.15358 
 C                     4.87432  -0.22707  -3.07531 
 C                     5.22417  -2.71428  -2.60005 
 C                     1.18378  -0.93763   2.47456 
 C                     3.27771  -0.74791   3.12992 
 N                     2.4171   -0.78832   2.03956 
 Br                    5.34531  -0.9111   -0.14708 
 O                     4.49398  -0.64121   3.05635 
 O                     0.13961  -1.04039   1.72981 
 C                     2.49422  -0.86169   4.45778 
 C                     1.03977  -0.99662   3.99357 
 H                    -3.33637   1.04046  -0.77959 
 H                    -3.21672   3.14095  -0.00976 
 H                     0.53406   5.14566   0.29313 
 H                     2.51254  -3.20268  -1.75806 
 H                     3.4107   -3.23184  -0.23351 
 H                     2.92216  -0.44383  -1.19439 
 H                     4.51435   0.71214  -2.65411 
 H                     4.30492  -0.42391  -3.99436 
 H                     5.93167  -0.13524  -3.33855 
 H                     4.67225  -3.03091  -3.49623 
 H                     5.13589  -3.49912  -1.84716 
 H                     6.27553  -2.60106  -2.87677 
 H                     2.85805  -1.72455   5.0246 
 H                     2.68209   0.0277    5.06798 
 H                     0.38456  -0.1883    4.33727 
 H                     0.56461  -1.94039   4.28361 
 H                    -2.32143  -1.61234  -2.33391 
 H                    -2.56564  -3.59667  -1.25023 
 H                    -1.95414   5.23565   0.44306 
 H                     1.75342   3.10148  -0.198 
 H                    -3.79178  -1.22181  -1.4788 
 H                    -2.98335  -2.96475   0.32569 
 
 Add virtual bond connecting atoms Br24       and C17        Dist= 4.34D+00.
 Add virtual bond connecting atoms Br24       and C18        Dist= 4.12D+00.
 Add virtual bond connecting atoms Cl14       and Ti1        Dist= 4.77D+00.
 The following ModRedundant input section has been read:
 B      14      17 F                                                           
 B      14      18 F                                                           
 
 NAtoms=     50 NQM=       50 NQMF=       0 NMMI=      0 NMMIF=      0
                NMic=       0 NMicF=      0.
                    Isotopes and Nuclear Properties:
 (Nuclear quadrupole moments (NQMom) in fm**2, nuclear magnetic moments (NMagM)
  in nuclear magnetons)

  Atom         1           2           3           4           5           6           7           8           9          10
 IAtWgt=          48          12          12          16          14          12          12          12          12          12
 AtmWgt=  47.9479467  12.0000000  12.0000000  15.9949146  14.0030740  12.0000000  12.0000000  12.0000000  12.0000000  12.0000000
 NucSpn=           0           0           0           0           2           0           0           0           0           0
 AtZEff=   0.0000000   0.0000000   0.0000000   0.0000000   0.0000000   0.0000000   0.0000000   0.0000000   0.0000000   0.0000000
 NQMom=    0.0000000   0.0000000   0.0000000   0.0000000   2.0440000   0.0000000   0.0000000   0.0000000   0.0000000   0.0000000
 NMagM=    0.0000000   0.0000000   0.0000000   0.0000000   0.4037610   0.0000000   0.0000000   0.0000000   0.0000000   0.0000000
 AtZNuc=  22.0000000   6.0000000   6.0000000   8.0000000   7.0000000   6.0000000   6.0000000   6.0000000   6.0000000   6.0000000

  Atom        11          12          13          14          15          16          17          18          19          20
 IAtWgt=          12          12          16          35          16          12          12          12          12          12
 AtmWgt=  12.0000000  12.0000000  15.9949146  34.9688527  15.9949146  12.0000000  12.0000000  12.0000000  12.0000000  12.0000000
 NucSpn=           0           0           0           3           0           0           0           0           0           0
 AtZEff=   0.0000000   0.0000000   0.0000000   0.0000000   0.0000000   0.0000000   0.0000000   0.0000000   0.0000000   0.0000000
 NQMom=    0.0000000   0.0000000   0.0000000  -8.1650000   0.0000000   0.0000000   0.0000000   0.0000000   0.0000000   0.0000000
 NMagM=    0.0000000   0.0000000   0.0000000   0.8218740   0.0000000   0.0000000   0.0000000   0.0000000   0.0000000   0.0000000
 AtZNuc=   6.0000000   6.0000000   8.0000000  17.0000000   8.0000000   6.0000000   6.0000000   6.0000000   6.0000000   6.0000000

  Atom        21          22          23          24          25          26          27          28          29          30
 IAtWgt=          12          12          14          79          16          16          12          12           1           1
 AtmWgt=  12.0000000  12.0000000  14.0030740  78.9183361  15.9949146  15.9949146  12.0000000  12.0000000   1.0078250   1.0078250
 NucSpn=           0           0           2           3           0           0           0           0           1           1
 AtZEff=   0.0000000   0.0000000   0.0000000   0.0000000   0.0000000   0.0000000   0.0000000   0.0000000   0.0000000   0.0000000
 NQMom=    0.0000000   0.0000000   2.0440000  31.3000000   0.0000000   0.0000000   0.0000000   0.0000000   0.0000000   0.0000000
 NMagM=    0.0000000   0.0000000   0.4037610   2.1063990   0.0000000   0.0000000   0.0000000   0.0000000   2.7928460   2.7928460
 AtZNuc=   6.0000000   6.0000000   7.0000000  35.0000000   8.0000000   8.0000000   6.0000000   6.0000000   1.0000000   1.0000000

  Atom        31          32          33          34          35          36          37          38          39          40
 IAtWgt=           1           1           1           1           1           1           1           1           1           1
 AtmWgt=   1.0078250   1.0078250   1.0078250   1.0078250   1.0078250   1.0078250   1.0078250   1.0078250   1.0078250   1.0078250
 NucSpn=           1           1           1           1           1           1           1           1           1           1
 AtZEff=   0.0000000   0.0000000   0.0000000   0.0000000   0.0000000   0.0000000   0.0000000   0.0000000   0.0000000   0.0000000
 NQMom=    0.0000000   0.0000000   0.0000000   0.0000000   0.0000000   0.0000000   0.0000000   0.0000000   0.0000000   0.0000000
 NMagM=    2.7928460   2.7928460   2.7928460   2.7928460   2.7928460   2.7928460   2.7928460   2.7928460   2.7928460   2.7928460
 AtZNuc=   1.0000000   1.0000000   1.0000000   1.0000000   1.0000000   1.0000000   1.0000000   1.0000000   1.0000000   1.0000000

  Atom        41          42          43          44          45          46          47          48          49          50
 IAtWgt=           1           1           1           1           1           1           1           1           1           1
 AtmWgt=   1.0078250   1.0078250   1.0078250   1.0078250   1.0078250   1.0078250   1.0078250   1.0078250   1.0078250   1.0078250
 NucSpn=           1           1           1           1           1           1           1           1           1           1
 AtZEff=   0.0000000   0.0000000   0.0000000   0.0000000   0.0000000   0.0000000   0.0000000   0.0000000   0.0000000   0.0000000
 NQMom=    0.0000000   0.0000000   0.0000000   0.0000000   0.0000000   0.0000000   0.0000000   0.0000000   0.0000000   0.0000000
 NMagM=    2.7928460   2.7928460   2.7928460   2.7928460   2.7928460   2.7928460   2.7928460   2.7928460   2.7928460   2.7928460
 AtZNuc=   1.0000000   1.0000000   1.0000000   1.0000000   1.0000000   1.0000000   1.0000000   1.0000000   1.0000000   1.0000000
 Leave Link  101 at Wed Feb  3 21:41:02 2016, MaxMem= 34359738368 cpu:        22.7
 (Enter /share/sw/non-free/gaussian/g09/l103.exe)

 GradGradGradGradGradGradGradGradGradGradGradGradGradGradGradGradGradGrad
 Berny optimization.
 Initialization pass.
                           ----------------------------
                           !    Initial Parameters    !
                           ! (Angstroms and Degrees)  !
 --------------------------                            --------------------------
 ! Name  Definition              Value          Derivative Info.                !
 --------------------------------------------------------------------------------
 ! R1    R(1,4)                  1.8267         estimate D2E/DX2                !
 ! R2    R(1,13)                 1.9571         estimate D2E/DX2                !
 ! R3    R(1,14)                 2.5218         estimate D2E/DX2                !
 ! R4    R(1,15)                 1.8472         estimate D2E/DX2                !
 ! R5    R(1,26)                 2.0115         estimate D2E/DX2                !
 ! R6    R(2,3)                  1.5694         estimate D2E/DX2                !
 ! R7    R(2,4)                  1.4026         estimate D2E/DX2                !
 ! R8    R(2,46)                 1.0993         estimate D2E/DX2                !
 ! R9    R(2,50)                 1.07           estimate D2E/DX2                !
 ! R10   R(3,5)                  1.4773         estimate D2E/DX2                !
 ! R11   R(3,45)                 1.0976         estimate D2E/DX2                !
 ! R12   R(3,49)                 1.07           estimate D2E/DX2                !
 ! R13   R(5,6)                  1.2906         estimate D2E/DX2                !
 ! R14   R(6,7)                  1.4383         estimate D2E/DX2                !
 ! R15   R(6,29)                 1.0927         estimate D2E/DX2                !
 ! R16   R(7,8)                  1.4283         estimate D2E/DX2                !
 ! R17   R(7,9)                  1.4079         estimate D2E/DX2                !
 ! R18   R(8,10)                 1.4339         estimate D2E/DX2                !
 ! R19   R(8,13)                 1.3198         estimate D2E/DX2                !
 ! R20   R(9,11)                 1.3852         estimate D2E/DX2                !
 ! R21   R(9,30)                 1.0878         estimate D2E/DX2                !
 ! R22   R(10,12)                1.397          estimate D2E/DX2                !
 ! R23   R(10,48)                1.07           estimate D2E/DX2                !
 ! R24   R(11,12)                1.4093         estimate D2E/DX2                !
 ! R25   R(11,47)                1.07           estimate D2E/DX2                !
 ! R26   R(12,31)                1.0806         estimate D2E/DX2                !
 ! R27   R(14,17)                3.0605         Frozen                          !
 ! R28   R(14,18)                3.9752         Frozen                          !
 ! R29   R(15,16)                1.3579         estimate D2E/DX2                !
 ! R30   R(16,17)                1.5            estimate D2E/DX2                !
 ! R31   R(16,32)                1.1082         estimate D2E/DX2                !
 ! R32   R(16,33)                1.1008         estimate D2E/DX2                !
 ! R33   R(17,18)                1.4614         estimate D2E/DX2                !
 ! R34   R(17,24)                2.298          estimate D2E/DX2                !
 ! R35   R(17,34)                1.0842         estimate D2E/DX2                !
 ! R36   R(18,19)                1.5064         estimate D2E/DX2                !
 ! R37   R(18,20)                1.5085         estimate D2E/DX2                !
 ! R38   R(18,24)                2.1805         estimate D2E/DX2                !
 ! R39   R(19,35)                1.0905         estimate D2E/DX2                !
 ! R40   R(19,36)                1.0989         estimate D2E/DX2                !
 ! R41   R(19,37)                1.0935         estimate D2E/DX2                !
 ! R42   R(20,38)                1.0991         estimate D2E/DX2                !
 ! R43   R(20,39)                1.0912         estimate D2E/DX2                !
 ! R44   R(20,40)                1.093          estimate D2E/DX2                !
 ! R45   R(21,23)                1.3163         estimate D2E/DX2                !
 ! R46   R(21,26)                1.2867         estimate D2E/DX2                !
 ! R47   R(21,28)                1.527          estimate D2E/DX2                !
 ! R48   R(22,23)                1.3897         estimate D2E/DX2                !
 ! R49   R(22,25)                1.2231         estimate D2E/DX2                !
 ! R50   R(22,27)                1.546          estimate D2E/DX2                !
 ! R51   R(27,28)                1.5327         estimate D2E/DX2                !
 ! R52   R(27,41)                1.0946         estimate D2E/DX2                !
 ! R53   R(27,42)                1.0948         estimate D2E/DX2                !
 ! R54   R(28,43)                1.0958         estimate D2E/DX2                !
 ! R55   R(28,44)                1.0957         estimate D2E/DX2                !
 ! A1    A(4,1,13)             154.8433         estimate D2E/DX2                !
 ! A2    A(4,1,14)              99.583          estimate D2E/DX2                !
 ! A3    A(4,1,15)              92.3797         estimate D2E/DX2                !
 ! A4    A(4,1,26)              95.2901         estimate D2E/DX2                !
 ! A5    A(13,1,14)             84.3734         estimate D2E/DX2                !
 ! A6    A(13,1,15)            112.7767         estimate D2E/DX2                !
 ! A7    A(13,1,26)             85.4233         estimate D2E/DX2                !
 ! A8    A(14,1,15)             82.7595         estimate D2E/DX2                !
 ! A9    A(14,1,26)            163.2598         estimate D2E/DX2                !
 ! A10   A(15,1,26)             89.0193         estimate D2E/DX2                !
 ! A11   A(3,2,4)              105.3401         estimate D2E/DX2                !
 ! A12   A(3,2,46)             106.6038         estimate D2E/DX2                !
 ! A13   A(3,2,50)             116.7968         estimate D2E/DX2                !
 ! A14   A(4,2,46)             108.3559         estimate D2E/DX2                !
 ! A15   A(4,2,50)             111.976          estimate D2E/DX2                !
 ! A16   A(46,2,50)            107.4089         estimate D2E/DX2                !
 ! A17   A(2,3,5)              104.8232         estimate D2E/DX2                !
 ! A18   A(2,3,45)             103.9851         estimate D2E/DX2                !
 ! A19   A(2,3,49)             117.2331         estimate D2E/DX2                !
 ! A20   A(5,3,45)             103.541          estimate D2E/DX2                !
 ! A21   A(5,3,49)             118.3103         estimate D2E/DX2                !
 ! A22   A(45,3,49)            107.2385         estimate D2E/DX2                !
 ! A23   A(1,4,2)              131.0569         estimate D2E/DX2                !
 ! A24   A(3,5,6)              121.8362         estimate D2E/DX2                !
 ! A25   A(5,6,7)              126.0111         estimate D2E/DX2                !
 ! A26   A(5,6,29)             118.7965         estimate D2E/DX2                !
 ! A27   A(7,6,29)             115.1405         estimate D2E/DX2                !
 ! A28   A(6,7,8)              121.6523         estimate D2E/DX2                !
 ! A29   A(6,7,9)              116.7134         estimate D2E/DX2                !
 ! A30   A(8,7,9)              121.3309         estimate D2E/DX2                !
 ! A31   A(7,8,10)             117.3648         estimate D2E/DX2                !
 ! A32   A(7,8,13)             120.0388         estimate D2E/DX2                !
 ! A33   A(10,8,13)            122.5601         estimate D2E/DX2                !
 ! A34   A(7,9,11)             121.8778         estimate D2E/DX2                !
 ! A35   A(7,9,30)             117.5285         estimate D2E/DX2                !
 ! A36   A(11,9,30)            120.5932         estimate D2E/DX2                !
 ! A37   A(8,10,12)            117.8032         estimate D2E/DX2                !
 ! A38   A(8,10,48)            122.0895         estimate D2E/DX2                !
 ! A39   A(12,10,48)           120.0697         estimate D2E/DX2                !
 ! A40   A(9,11,12)            115.9193         estimate D2E/DX2                !
 ! A41   A(9,11,47)            120.8195         estimate D2E/DX2                !
 ! A42   A(12,11,47)           123.2386         estimate D2E/DX2                !
 ! A43   A(10,12,11)           125.2566         estimate D2E/DX2                !
 ! A44   A(10,12,31)           117.3187         estimate D2E/DX2                !
 ! A45   A(11,12,31)           117.4184         estimate D2E/DX2                !
 ! A46   A(1,13,8)             139.4005         estimate D2E/DX2                !
 ! A47   A(1,15,16)            140.5489         estimate D2E/DX2                !
 ! A48   A(15,16,17)           112.5133         estimate D2E/DX2                !
 ! A49   A(15,16,32)           111.4231         estimate D2E/DX2                !
 ! A50   A(15,16,33)           111.23           estimate D2E/DX2                !
 ! A51   A(17,16,32)           104.6828         estimate D2E/DX2                !
 ! A52   A(17,16,33)           110.1622         estimate D2E/DX2                !
 ! A53   A(32,16,33)           106.4755         estimate D2E/DX2                !
 ! A54   A(16,17,18)           124.7215         estimate D2E/DX2                !
 ! A55   A(16,17,24)           113.2056         estimate D2E/DX2                !
 ! A56   A(16,17,34)           116.7865         estimate D2E/DX2                !
 ! A57   A(18,17,34)           117.7505         estimate D2E/DX2                !
 ! A58   A(24,17,34)            98.4278         estimate D2E/DX2                !
 ! A59   A(17,18,19)           117.902          estimate D2E/DX2                !
 ! A60   A(17,18,20)           119.2778         estimate D2E/DX2                !
 ! A61   A(19,18,20)           115.962          estimate D2E/DX2                !
 ! A62   A(19,18,24)           109.9371         estimate D2E/DX2                !
 ! A63   A(20,18,24)           110.0285         estimate D2E/DX2                !
 ! A64   A(18,19,35)           112.4077         estimate D2E/DX2                !
 ! A65   A(18,19,36)           107.0425         estimate D2E/DX2                !
 ! A66   A(18,19,37)           111.1666         estimate D2E/DX2                !
 ! A67   A(35,19,36)           107.8351         estimate D2E/DX2                !
 ! A68   A(35,19,37)           109.8683         estimate D2E/DX2                !
 ! A69   A(36,19,37)           108.3445         estimate D2E/DX2                !
 ! A70   A(18,20,38)           107.4315         estimate D2E/DX2                !
 ! A71   A(18,20,39)           113.1555         estimate D2E/DX2                !
 ! A72   A(18,20,40)           110.8022         estimate D2E/DX2                !
 ! A73   A(38,20,39)           108.3467         estimate D2E/DX2                !
 ! A74   A(38,20,40)           107.8436         estimate D2E/DX2                !
 ! A75   A(39,20,40)           109.087          estimate D2E/DX2                !
 ! A76   A(23,21,26)           125.321          estimate D2E/DX2                !
 ! A77   A(23,21,28)           114.9296         estimate D2E/DX2                !
 ! A78   A(26,21,28)           119.748          estimate D2E/DX2                !
 ! A79   A(23,22,25)           124.8306         estimate D2E/DX2                !
 ! A80   A(23,22,27)           110.9731         estimate D2E/DX2                !
 ! A81   A(25,22,27)           124.1959         estimate D2E/DX2                !
 ! A82   A(21,23,22)           108.9209         estimate D2E/DX2                !
 ! A83   A(1,26,21)            126.88           estimate D2E/DX2                !
 ! A84   A(22,27,28)           103.136          estimate D2E/DX2                !
 ! A85   A(22,27,41)           109.5324         estimate D2E/DX2                !
 ! A86   A(22,27,42)           109.3884         estimate D2E/DX2                !
 ! A87   A(28,27,41)           113.7564         estimate D2E/DX2                !
 ! A88   A(28,27,42)           113.7755         estimate D2E/DX2                !
 ! A89   A(41,27,42)           107.1405         estimate D2E/DX2                !
 ! A90   A(21,28,27)           102.0284         estimate D2E/DX2                !
 ! A91   A(21,28,43)           109.8713         estimate D2E/DX2                !
 ! A92   A(21,28,44)           109.7245         estimate D2E/DX2                !
 ! A93   A(27,28,43)           114.0455         estimate D2E/DX2                !
 ! A94   A(27,28,44)           114.0274         estimate D2E/DX2                !
 ! A95   A(43,28,44)           107.04           estimate D2E/DX2                !
 ! D1    D(13,1,4,2)            12.1256         estimate D2E/DX2                !
 ! D2    D(14,1,4,2)           -85.0891         estimate D2E/DX2                !
 ! D3    D(15,1,4,2)          -168.1443         estimate D2E/DX2                !
 ! D4    D(26,1,4,2)           102.6209         estimate D2E/DX2                !
 ! D5    D(4,1,13,8)            13.1171         estimate D2E/DX2                !
 ! D6    D(14,1,13,8)          113.7049         estimate D2E/DX2                !
 ! D7    D(15,1,13,8)         -166.5904         estimate D2E/DX2                !
 ! D8    D(26,1,13,8)          -79.5845         estimate D2E/DX2                !
 ! D9    D(4,1,15,16)          120.2696         estimate D2E/DX2                !
 ! D10   D(13,1,15,16)         -59.8549         estimate D2E/DX2                !
 ! D11   D(14,1,15,16)          20.9071         estimate D2E/DX2                !
 ! D12   D(26,1,15,16)        -144.4759         estimate D2E/DX2                !
 ! D13   D(4,1,26,21)          130.0061         estimate D2E/DX2                !
 ! D14   D(13,1,26,21)         -75.2357         estimate D2E/DX2                !
 ! D15   D(14,1,26,21)         -22.6533         estimate D2E/DX2                !
 ! D16   D(15,1,26,21)          37.7068         estimate D2E/DX2                !
 ! D17   D(4,2,3,5)            -34.5449         estimate D2E/DX2                !
 ! D18   D(4,2,3,45)            73.8468         estimate D2E/DX2                !
 ! D19   D(4,2,3,49)          -168.0116         estimate D2E/DX2                !
 ! D20   D(46,2,3,5)          -149.5412         estimate D2E/DX2                !
 ! D21   D(46,2,3,45)          -41.1495         estimate D2E/DX2                !
 ! D22   D(46,2,3,49)           76.9921         estimate D2E/DX2                !
 ! D23   D(50,2,3,5)            90.4342         estimate D2E/DX2                !
 ! D24   D(50,2,3,45)         -161.1741         estimate D2E/DX2                !
 ! D25   D(50,2,3,49)          -43.0325         estimate D2E/DX2                !
 ! D26   D(3,2,4,1)             18.1627         estimate D2E/DX2                !
 ! D27   D(46,2,4,1)           131.9419         estimate D2E/DX2                !
 ! D28   D(50,2,4,1)          -109.7754         estimate D2E/DX2                !
 ! D29   D(2,3,5,6)           -143.1573         estimate D2E/DX2                !
 ! D30   D(45,3,5,6)           108.127          estimate D2E/DX2                !
 ! D31   D(49,3,5,6)           -10.2954         estimate D2E/DX2                !
 ! D32   D(3,5,6,7)           -170.232          estimate D2E/DX2                !
 ! D33   D(3,5,6,29)             7.014          estimate D2E/DX2                !
 ! D34   D(5,6,7,8)             10.6152         estimate D2E/DX2                !
 ! D35   D(5,6,7,9)           -175.6322         estimate D2E/DX2                !
 ! D36   D(29,6,7,8)          -166.7188         estimate D2E/DX2                !
 ! D37   D(29,6,7,9)             7.0337         estimate D2E/DX2                !
 ! D38   D(6,7,8,10)           167.3346         estimate D2E/DX2                !
 ! D39   D(6,7,8,13)           -10.529          estimate D2E/DX2                !
 ! D40   D(9,7,8,10)            -6.1309         estimate D2E/DX2                !
 ! D41   D(9,7,8,13)           176.0055         estimate D2E/DX2                !
 ! D42   D(6,7,9,11)          -173.2783         estimate D2E/DX2                !
 ! D43   D(6,7,9,30)             6.4719         estimate D2E/DX2                !
 ! D44   D(8,7,9,11)             0.4958         estimate D2E/DX2                !
 ! D45   D(8,7,9,30)          -179.754          estimate D2E/DX2                !
 ! D46   D(7,8,10,12)            7.2513         estimate D2E/DX2                !
 ! D47   D(7,8,10,48)         -170.5184         estimate D2E/DX2                !
 ! D48   D(13,8,10,12)        -174.943          estimate D2E/DX2                !
 ! D49   D(13,8,10,48)           7.2872         estimate D2E/DX2                !
 ! D50   D(7,8,13,1)           -12.7691         estimate D2E/DX2                !
 ! D51   D(10,8,13,1)          169.4821         estimate D2E/DX2                !
 ! D52   D(7,9,11,12)            3.7284         estimate D2E/DX2                !
 ! D53   D(7,9,11,47)         -177.9504         estimate D2E/DX2                !
 ! D54   D(30,9,11,12)        -176.0142         estimate D2E/DX2                !
 ! D55   D(30,9,11,47)           2.307          estimate D2E/DX2                !
 ! D56   D(8,10,12,11)          -3.2174         estimate D2E/DX2                !
 ! D57   D(8,10,12,31)         177.7196         estimate D2E/DX2                !
 ! D58   D(48,10,12,11)        174.5993         estimate D2E/DX2                !
 ! D59   D(48,10,12,31)         -4.4638         estimate D2E/DX2                !
 ! D60   D(9,11,12,10)          -2.3718         estimate D2E/DX2                !
 ! D61   D(9,11,12,31)         176.6904         estimate D2E/DX2                !
 ! D62   D(47,11,12,10)        179.352          estimate D2E/DX2                !
 ! D63   D(47,11,12,31)         -1.5858         estimate D2E/DX2                !
 ! D64   D(1,15,16,17)          44.8562         estimate D2E/DX2                !
 ! D65   D(1,15,16,32)         -72.3612         estimate D2E/DX2                !
 ! D66   D(1,15,16,33)         169.0018         estimate D2E/DX2                !
 ! D67   D(15,16,17,18)       -176.5504         estimate D2E/DX2                !
 ! D68   D(15,16,17,24)        106.6011         estimate D2E/DX2                !
 ! D69   D(15,16,17,34)         -6.669          estimate D2E/DX2                !
 ! D70   D(32,16,17,18)        -55.3966         estimate D2E/DX2                !
 ! D71   D(32,16,17,24)       -132.2451         estimate D2E/DX2                !
 ! D72   D(32,16,17,34)        114.4847         estimate D2E/DX2                !
 ! D73   D(33,16,17,18)         58.7158         estimate D2E/DX2                !
 ! D74   D(33,16,17,24)        -18.1327         estimate D2E/DX2                !
 ! D75   D(33,16,17,34)       -131.4029         estimate D2E/DX2                !
 ! D76   D(16,17,18,19)        152.0102         estimate D2E/DX2                !
 ! D77   D(16,17,18,20)          2.1519         estimate D2E/DX2                !
 ! D78   D(34,17,18,19)        -17.782          estimate D2E/DX2                !
 ! D79   D(34,17,18,20)       -167.6404         estimate D2E/DX2                !
 ! D80   D(17,18,19,35)         34.6084         estimate D2E/DX2                !
 ! D81   D(17,18,19,36)        -83.6146         estimate D2E/DX2                !
 ! D82   D(17,18,19,37)        158.2411         estimate D2E/DX2                !
 ! D83   D(20,18,19,35)       -174.5455         estimate D2E/DX2                !
 ! D84   D(20,18,19,36)         67.2315         estimate D2E/DX2                !
 ! D85   D(20,18,19,37)        -50.9128         estimate D2E/DX2                !
 ! D86   D(24,18,19,35)        -48.966          estimate D2E/DX2                !
 ! D87   D(24,18,19,36)       -167.189          estimate D2E/DX2                !
 ! D88   D(24,18,19,37)         74.6667         estimate D2E/DX2                !
 ! D89   D(17,18,20,38)         83.0007         estimate D2E/DX2                !
 ! D90   D(17,18,20,39)        -36.5444         estimate D2E/DX2                !
 ! D91   D(17,18,20,40)       -159.4281         estimate D2E/DX2                !
 ! D92   D(19,18,20,38)        -67.4235         estimate D2E/DX2                !
 ! D93   D(19,18,20,39)        173.0314         estimate D2E/DX2                !
 ! D94   D(19,18,20,40)         50.1477         estimate D2E/DX2                !
 ! D95   D(24,18,20,38)        167.0435         estimate D2E/DX2                !
 ! D96   D(24,18,20,39)         47.4984         estimate D2E/DX2                !
 ! D97   D(24,18,20,40)        -75.3853         estimate D2E/DX2                !
 ! D98   D(26,21,23,22)       -178.5207         estimate D2E/DX2                !
 ! D99   D(28,21,23,22)          1.0533         estimate D2E/DX2                !
 ! D100  D(23,21,26,1)           8.5223         estimate D2E/DX2                !
 ! D101  D(28,21,26,1)        -171.0327         estimate D2E/DX2                !
 ! D102  D(23,21,28,27)         -0.5123         estimate D2E/DX2                !
 ! D103  D(23,21,28,43)        120.8197         estimate D2E/DX2                !
 ! D104  D(23,21,28,44)       -121.7546         estimate D2E/DX2                !
 ! D105  D(26,21,28,27)        179.0874         estimate D2E/DX2                !
 ! D106  D(26,21,28,43)        -59.5806         estimate D2E/DX2                !
 ! D107  D(26,21,28,44)         57.8451         estimate D2E/DX2                !
 ! D108  D(25,22,23,21)        178.6229         estimate D2E/DX2                !
 ! D109  D(27,22,23,21)         -1.1509         estimate D2E/DX2                !
 ! D110  D(23,22,27,28)          0.7987         estimate D2E/DX2                !
 ! D111  D(23,22,27,41)        122.2465         estimate D2E/DX2                !
 ! D112  D(23,22,27,42)       -120.601          estimate D2E/DX2                !
 ! D113  D(25,22,27,28)       -178.9768         estimate D2E/DX2                !
 ! D114  D(25,22,27,41)        -57.5289         estimate D2E/DX2                !
 ! D115  D(25,22,27,42)         59.6236         estimate D2E/DX2                !
 ! D116  D(22,27,28,21)         -0.186          estimate D2E/DX2                !
 ! D117  D(22,27,28,43)       -118.5865         estimate D2E/DX2                !
 ! D118  D(22,27,28,44)        118.0303         estimate D2E/DX2                !
 ! D119  D(41,27,28,21)       -118.7294         estimate D2E/DX2                !
 ! D120  D(41,27,28,43)        122.8701         estimate D2E/DX2                !
 ! D121  D(41,27,28,44)         -0.5131         estimate D2E/DX2                !
 ! D122  D(42,27,28,21)        118.1937         estimate D2E/DX2                !
 ! D123  D(42,27,28,43)         -0.2068         estimate D2E/DX2                !
 ! D124  D(42,27,28,44)       -123.59           estimate D2E/DX2                !
 --------------------------------------------------------------------------------
 Trust Radius=3.00D-01 FncErr=1.00D-07 GrdErr=1.00D-06
 Number of steps in this run=    284 maximum allowed number of steps=    300.
 GradGradGradGradGradGradGradGradGradGradGradGradGradGradGradGradGradGrad

 Leave Link  103 at Wed Feb  3 21:41:02 2016, MaxMem= 34359738368 cpu:         0.4
 (Enter /share/sw/non-free/gaussian/g09/l202.exe)
                          Input orientation:                          
 ---------------------------------------------------------------------
 Center     Atomic      Atomic             Coordinates (Angstroms)
 Number     Number       Type             X           Y           Z
 ---------------------------------------------------------------------
      1         22           0        0.099107   -1.242515   -0.271092
      2          6           0       -2.407446   -2.761623   -0.552930
      3          6           0       -2.755491   -1.448769   -1.339160
      4          8           0       -1.035893   -2.673835   -0.272845
      5          7           0       -1.884690   -0.412079   -0.747989
      6          6           0       -2.288327    0.802453   -0.582040
      7          6           0       -1.468074    1.922090   -0.204648
      8          6           0       -0.042573    1.834377   -0.186062
      9          6           0       -2.129166    3.145773    0.013980
     10          6           0        0.691795    3.060594   -0.070794
     11          6           0       -1.434313    4.321257    0.246687
     12          6           0       -0.029943    4.232173    0.170033
     13          8           0        0.548936    0.661683   -0.315557
     14         17           0        0.712978   -1.190516   -2.716451
     15          8           0        1.590213   -2.327173   -0.159926
     16          6           0        2.728040   -2.618459   -0.841328
     17          6           0        3.434764   -1.389423   -1.331105
     18          6           0        4.642757   -1.395908   -2.153583
     19          6           0        4.874317   -0.227067   -3.075309
     20          6           0        5.224172   -2.714276   -2.600049
     21          6           0        1.183776   -0.937630    2.474558
     22          6           0        3.277711   -0.747906    3.129920
     23          7           0        2.417096   -0.788319    2.039557
     24         35           0        5.345306   -0.911095   -0.147078
     25          8           0        4.493975   -0.641209    3.056351
     26          8           0        0.139610   -1.040395    1.729812
     27          6           0        2.494224   -0.861686    4.457779
     28          6           0        1.039767   -0.996620    3.993571
     29          1           0       -3.336371    1.040461   -0.779590
     30          1           0       -3.216717    3.140947   -0.009762
     31          1           0        0.534063    5.145656    0.293131
     32          1           0        2.512541   -3.202679   -1.758056
     33          1           0        3.410704   -3.231837   -0.233510
     34          1           0        2.922158   -0.443834   -1.194391
     35          1           0        4.514350    0.712141   -2.654105
     36          1           0        4.304920   -0.423910   -3.994357
     37          1           0        5.931671   -0.135244   -3.338553
     38          1           0        4.672250   -3.030914   -3.496234
     39          1           0        5.135891   -3.499117   -1.847158
     40          1           0        6.275533   -2.601063   -2.876770
     41          1           0        2.858052   -1.724551    5.024604
     42          1           0        2.682085    0.027699    5.067979
     43          1           0        0.384560   -0.188297    4.337272
     44          1           0        0.564608   -1.940386    4.283611
     45          1           0       -2.321427   -1.612343   -2.333906
     46          1           0       -2.565644   -3.596665   -1.250225
     47          1           0       -1.954136    5.235654    0.443060
     48          1           0        1.753420    3.101480   -0.197995
     49          1           0       -3.791778   -1.221809   -1.478796
     50          1           0       -2.983348   -2.964749    0.325692
 ---------------------------------------------------------------------
                    Distance matrix (angstroms):
                    1          2          3          4          5
     1  Ti   0.000000
     2  C    2.944474   0.000000
     3  C    3.054839   1.569356   0.000000
     4  O    1.826720   1.402609   2.365340   0.000000
     5  N    2.202840   2.414887   1.477330   2.462064   0.000000
     6  C    3.158864   3.566185   2.420635   3.707933   1.290562
     7  C    3.532024   4.789665   3.782493   4.616704   2.432516
     8  C    3.081326   5.181740   4.412324   4.617163   2.959007
     9  C    4.929862   5.941057   4.830433   5.928352   3.646735
    10  C    4.348350   6.613317   5.816089   5.992446   4.376794
    11  C    5.794397   7.193995   6.128101   7.025665   4.857642
    12  C    5.493947   7.422155   6.479149   6.992927   5.084479
    13  O    1.957114   4.529411   4.052284   3.693127   2.694902
    14  Cl   2.521770   4.109288   3.740842   3.351119   3.350923
    15  O    1.847224   4.040356   4.587737   2.651294   4.011029
    16  C    3.021536   5.145570   5.628954   3.807024   5.114108
    17  C    3.503115   6.051438   6.190545   4.770367   5.439836
    18  C    4.920575   7.357488   7.443128   6.116971   6.749161
    19  C    5.630044   8.112364   7.919643   6.983628   7.150862
    20  C    5.818626   7.901552   8.177186   6.678767   7.698452
    21  C    2.967837   5.038800   5.506681   3.935678   4.480680
    22  C    4.681351   7.066785   7.540783   5.821958   6.465396
    23  N    3.304310   5.821608   6.213500   4.563497   5.139779
    24  Br   5.258120   7.980873   8.205673   6.621387   7.272067
    25  O    5.545116   8.071721   8.516304   6.767167   7.430536
    26  O    2.011494   3.828973   4.238746   2.839114   3.260685
    27  C    5.314493   7.262461   7.842747   6.174497   6.817408
    28  C    4.374089   5.972368   6.560979   5.032268   5.601476
    29  H    4.156087   3.920474   2.616640   4.398293   2.053838
    30  H    5.502520   5.982498   4.800575   6.215858   3.865652
    31  H    6.427773   8.478995   7.547979   7.995594   6.150018
    32  H    3.446443   5.084597   5.568109   3.882900   5.305028
    33  H    3.863352   5.845853   6.513352   4.481645   6.021372
    34  H    3.075710   5.847076   5.767716   4.635550   4.827636
    35  H    5.384589   8.024539   7.697350   6.923903   6.770883
    36  H    5.676414   7.897099   7.612477   6.887387   6.989300
    37  H    6.682377   9.175970   9.010533   8.024335   8.239124
    38  H    5.874823   7.671874   7.894776   6.565108   7.576583
    39  H    5.739811   7.689009   8.169204   6.422653   7.747679
    40  H    6.839843   8.990002   9.233170   7.761615   8.712784
    41  H    5.990704   7.740147   8.490313   6.642809   7.585448
    42  H    6.065550   8.079496   8.532211   7.045995   7.407720
    43  H    4.736019   6.191234   6.608373   5.426672   5.573101
    44  H    4.631310   5.735823   6.548305   4.884756   5.801016
    45  H    3.201712   2.121348   1.097583   2.650912   2.036297
    46  H    3.688038   1.099337   2.158103   2.036425   3.295076
    47  H    6.833190   8.071798   6.964193   7.994730   5.772374
    48  H    4.648912   7.198247   6.506712   6.414057   5.087576
    49  H    4.074060   2.268178   1.070000   3.340300   2.196981
    50  H    3.581029   1.070000   2.263150   2.058023   2.979256
                    6          7          8          9         10
     6  C    0.000000
     7  C    1.438342   0.000000
     8  C    2.503014   1.428318   0.000000
     9  C    2.423163   1.407921   2.472579   0.000000
    10  C    3.773818   2.445228   1.433943   2.823520   0.000000
    11  C    3.714581   2.441484   2.882496   1.385184   2.492068
    12  C    4.174792   2.746833   2.424126   2.368830   1.396961
    13  O    2.853225   2.381020   1.319797   3.667632   2.415593
    14  Cl   4.187537   4.555706   4.015433   5.859730   5.007183
    15  O    5.001581   5.235585   4.470478   6.619453   5.462887
    16  C    6.077319   6.215249   5.285208   7.586196   6.082077
    17  C    6.174074   6.022694   4.878102   7.303052   5.377259
    18  C    7.439252   7.221476   6.021478   8.437069   6.309399
    19  C    7.653742   7.285979   6.064083   8.364719   6.109772
    20  C    8.536825   8.486459   7.365879   9.759349   7.764580
    21  C    4.942285   4.731644   4.033219   5.805533   4.765150
    22  C    6.867535   6.385194   5.356137   7.355551   5.606800
    23  N    5.616434   5.241881   4.228698   6.344174   4.716394
    24  Br   7.835674   7.379187   6.047179   8.505989   6.118439
    25  O    7.830815   7.262964   6.100986   8.213602   6.159461
    26  O    3.825654   3.886271   3.459491   5.061168   4.512782
    27  C    7.144363   6.722160   5.938801   7.561932   6.256277
    28  C    5.937094   5.695013   5.162881   6.560389   5.753358
    29  H    1.092735   2.144379   3.439721   2.553319   4.561738
    30  H    2.580303   2.140408   3.437062   1.087821   3.909814
    31  H    5.253115   3.827233   3.395100   3.342192   2.122452
    32  H    6.361795   6.672453   5.862739   8.061538   6.737251
    33  H    6.991132   7.096920   6.131386   8.451350   6.856649
    34  H    5.392343   5.084420   3.872545   6.313582   4.303255
    35  H    7.111823   6.576718   5.302471   7.561584   5.176935
    36  H    7.524545   7.293358   6.205132   8.378954   6.371090
    37  H    8.720436   8.295192   7.036277   9.326395   6.953268
    38  H    8.463856   8.548121   7.540415   9.835259   8.042645
    39  H    8.673122   8.700556   7.617210  10.019953   8.120053
    40  H    9.496810   9.357489   8.175054  10.584022   8.432437
    41  H    8.019066   7.704442   6.944828   8.584798   7.318016
    42  H    7.564916   6.972312   6.188117   7.642868   6.290206
    43  H    5.685555   5.339946   4.973349   6.010465   5.484590
    44  H    6.271919   6.260590   5.881792   7.166253   6.632256
    45  H    2.983516   4.213569   4.656854   5.309350   6.003126
    46  H    4.458208   5.723159   6.082314   6.873805   7.504736
    47  H    4.562432   3.411083   3.952031   2.140642   3.463507
    48  H    4.665698   3.430602   2.198018   3.888621   1.070000
    49  H    2.676224   4.111831   5.006793   4.905959   6.357977
    50  H    3.936857   5.143784   5.651695   6.177805   7.068850
                   11         12         13         14         15
    11  C    0.000000
    12  C    1.409279   0.000000
    13  O    4.200223   3.649561   0.000000
    14  Cl   6.615942   6.187833   3.036749   0.000000
    15  O    7.315375   6.764525   3.168870   2.932124   0.000000
    16  C    8.165085   7.453890   3.972941   3.100900   1.357868
    17  C    7.668716   6.771998   3.683256   3.060534   2.377689
    18  C    8.682053   7.675195   4.936739   3.975194   3.762971
    19  C    8.457052   7.380300   5.207209   4.286462   4.867776
    20  C   10.096438   9.139597   6.202728   4.763010   4.394281
    21  C    6.282809   5.788852   3.278043   5.218446   3.006082
    22  C    7.497507   6.671034   4.615676   6.399517   4.020550
    23  N    6.644961   5.889691   3.337527   5.068076   2.808831
    24  Br   8.572969   7.446279   5.050463   5.304547   4.013249
    25  O    8.225866   7.248898   5.350759   6.922638   4.649596
    26  O    5.781367   5.501057   2.692239   4.485593   2.707611
    27  C    7.747877   7.120645   5.374899   7.399361   4.928295
    28  C    6.959887   6.565364   4.643217   6.720772   4.396009
    29  H    3.928701   4.692683   3.931210   5.012576   5.999681
    30  H    2.153105   3.373222   4.518894   6.444396   7.282133
    31  H    2.134548   1.080605   4.525123   7.016885   7.560680
    32  H    8.729620   8.090660   4.568352   2.864568   2.042356
    33  H    8.986323   8.228751   4.832799   4.196393   2.034212
    34  H    6.615258   5.695752   2.761648   2.784722   2.528075
    35  H    7.538362   6.404450   4.603896   4.251402   4.899891
    36  H    8.569823   7.603439   5.368379   3.888801   5.069014
    37  H    9.325882   8.180791   6.224744   5.360538   5.810033
    38  H   10.264209   9.397051   6.383862   4.435196   4.596211
    39  H   10.426410   9.514607   6.379515   5.064333   4.097809
    40  H   10.822025   9.784434   7.071014   5.740850   5.422959
    41  H    8.820696   8.209137   6.288358   8.050495   5.371212
    42  H    7.656646   7.001612   5.825352   8.121501   5.836831
    43  H    6.354310   6.089191   4.732685   7.132132   5.123786
    44  H    7.713664   7.441472   5.284255   7.041675   4.576734
    45  H    6.531006   6.758622   4.181377   3.087376   4.531898
    46  H    8.137207   8.350905   5.357960   4.323047   4.480124
    47  H    1.070000   2.187244   5.268973   7.641444   8.373909
    48  H    3.441982   2.143431   2.723456   5.083932   5.431239
    49  H    6.265821   6.827588   4.872624   4.671787   5.650405
    50  H    7.449271   7.780907   5.102866   5.105425   4.643252
                   16         17         18         19         20
    16  C    0.000000
    17  C    1.499957   0.000000
    18  C    2.623506   1.461424   0.000000
    19  C    3.913557   2.542761   1.506449   0.000000
    20  C    3.054989   2.562701   1.508466   2.556263   0.000000
    21  C    4.025548   4.444562   5.796055   6.702687   6.725541
    22  C    4.424016   4.509651   5.495331   6.428475   6.363008
    23  N    3.427185   3.571881   4.785933   5.702174   5.754557
    24  Br   3.201118   2.298018   2.180523   3.043725   3.046835
    25  O    4.713804   4.575098   5.266414   6.157388   6.068415
    26  O    3.975049   4.510995   5.956969   6.794714   6.884936
    27  C    5.587616   5.888489   6.972209   7.925591   7.790869
    28  C    5.371860   5.851707   7.136419   8.078679   7.995962
    29  H    7.082979   7.215038   8.455190   8.619301   9.523393
    30  H    8.318798   8.155513   9.324717   9.284715  10.594424
    31  H    8.147516   7.332085   8.103076   7.684422   9.599278
    32  H    1.108216   2.078624   2.821114   4.020872   2.881047
    33  H    1.100775   2.144710   2.928356   4.387098   3.026061
    34  H    2.211635   1.084248   2.187911   2.719516   3.525628
    35  H    4.191654   2.707842   2.170456   1.090459   3.499586
    36  H    4.152612   2.963494   2.108877   1.098913   2.834589
    37  H    4.760855   3.440546   2.157482   1.093493   2.774410
    38  H    3.316413   2.985573   2.115851   2.842458   1.099102
    39  H    2.754088   2.758795   2.181872   3.504724   1.091153
    40  H    4.089992   3.453566   2.154381   2.763816   1.093047
    41  H    5.935076   6.390614   7.404022   8.480352   8.044465
    42  H    6.474888   6.597199   7.617207   8.437057   8.531078
    43  H    6.181867   6.548049   7.856320   8.666359   8.827731
    44  H    5.604036   6.329802   7.639713   8.698434   8.348366
    45  H    5.360707   5.847139   6.969879   7.365283   7.630279
    46  H    5.398812   6.394009   7.590812   8.368879   7.954990
    47  H    9.233608   8.722359   9.707686   9.425922  11.135080
    48  H    5.837933   4.927379   5.692019   5.394270   7.186028
    49  H    6.698136   7.229994   8.463275   8.867895   9.207172
    50  H    5.839675   6.813133   8.171018   8.989138   8.716999
                   21         22         23         24         25
    21  C    0.000000
    22  C    2.202285   0.000000
    23  N    1.316282   1.389670   0.000000
    24  Br   4.918538   3.878182   3.656619   0.000000
    25  O    3.373984   1.223150   2.317097   3.325592   0.000000
    26  O    1.286658   3.448700   2.312234   5.535224   4.569415
    27  C    2.378278   1.545965   2.420564   5.416255   2.451859
    28  C    1.526964   2.411669   2.399707   5.974107   3.596700
    29  H    5.910504   7.888511   6.662913   8.920771   8.880134
    30  H    6.493918   8.195021   7.167893   9.473444   9.119239
    31  H    6.495161   7.092887   6.465901   7.747650   7.536849
    32  H    4.981073   5.523016   4.501123   3.983863   5.802217
    33  H    4.190015   4.183331   3.482078   3.022581   4.325276
    34  H    4.089865   4.349545   3.291227   2.680829   4.536339
    35  H    6.333850   6.092287   5.355401   3.100092   5.868669
    36  H    7.200855   7.205238   6.332834   4.015135   7.056589
    37  H    7.548416   7.018547   6.457771   3.336357   6.574022
    38  H    7.225071   7.145823   6.384351   4.020383   6.977022
    39  H    6.392000   5.982750   5.463225   3.103544   5.711751
    40  H    7.571639   6.964298   6.507215   3.342534   6.497453
    41  H    3.150425   2.172505   3.159348   5.796071   2.779189
    42  H    3.146843   2.170808   3.147609   5.930506   2.788733
    43  H    2.161007   3.184523   3.125816   6.726131   4.328184
    44  H    2.159065   3.180242   3.129656   6.598903   4.316706
    45  H    5.988573   7.870895   6.500753   8.003297   8.743436
    46  H    5.916302   7.838743   6.598270   8.426883   8.781773
    47  H    7.216849   8.390139   7.612143   9.560996   9.107411
    48  H    4.876622   5.311897   4.536258   5.385628   5.666492
    49  H    6.361282   8.452368   7.149604   9.238849   9.463528
    50  H    5.108009   7.209642   6.069512   8.591128   8.292508
                   26         27         28         29         30
    26  O    0.000000
    27  C    3.608039   0.000000
    28  C    2.436556   1.532691   0.000000
    29  H    4.765449   8.064988   6.788472   0.000000
    30  H    5.636902   8.282200   7.159874   2.240311   0.000000
    31  H    6.362930   7.568004   7.188640   5.743136   4.263678
    32  H    4.740411   6.642077   6.333796   7.291872   8.724822
    33  H    4.399671   5.335330   5.337204   8.004608   9.197018
    34  H    4.080370   5.683727   5.546523   6.445493   7.206926
    35  H    6.436494   7.558884   7.693126   8.078083   8.524145
    36  H    7.106052   8.654991   8.648480   8.418339   9.228230
    37  H    7.749554   8.551406   8.856226   9.686443  10.271674
    38  H    7.198510   8.527348   8.569158   9.385854  10.605808
    39  H    6.618372   7.327119   7.560082   9.670920  10.827397
    40  H    7.829804   8.433228   8.785731  10.490356  11.458326
    41  H    4.325928   1.094622   2.213385   8.927756   9.269344
    42  H    4.329938   1.094825   2.213773   8.452311   8.382818
    43  H    2.754073   2.217805   1.095816   6.444955   6.553607
    44  H    2.740893   2.217509   1.095716   7.052595   7.651890
    45  H    4.785147   8.359484   7.191224   3.237805   5.366279
    46  H    4.767970   8.103313   6.874345   4.724241   6.881719
    47  H    6.740051   8.548884   7.772440   4.583131   2.487359
    48  H    4.845199   6.158872   5.905332   5.521958   4.973857
    49  H    5.077784   8.653695   7.303516   2.411255   4.639224
    50  H    3.927793   7.176406   5.788983   4.169890   6.119356
                   31         32         33         34         35
    31  H    0.000000
    32  H    8.821363   0.000000
    33  H    8.873263   1.769686   0.000000
    34  H    6.257645   2.845475   2.989135   0.000000
    35  H    6.647175   4.487311   4.757339   2.449922   0.000000
    36  H    7.976339   3.991895   4.777870   3.122857   1.769392
    37  H    8.379213   4.857734   5.058207   3.708076   1.787548
    38  H    9.916662   2.777608   3.503889   3.879985   3.839866
    39  H   10.024458   2.641549   2.377303   3.829030   4.332686
    40  H   10.150094   3.971596   3.948664   4.327720   3.758812
    41  H    8.659533   6.950447   5.497736   6.349822   8.224559
    42  H    7.321657   7.553730   6.265880   6.284684   7.965942
    43  H    6.695408   7.125154   6.269987   6.091305   8.169780
    44  H    8.132457   6.472215   5.492949   6.148676   8.412388
    45  H    7.792669   5.121330   6.315992   5.491729   7.227282
    46  H    9.403101   5.118699   6.073182   6.329252   8.406129
    47  H    2.494336   9.798039  10.046773   7.662641   8.479146
    48  H    2.430369   6.538537   6.546659   3.863677   4.400471
    49  H    7.899192   6.614096   7.580679   6.764841   8.608907
    50  H    8.840357   5.882466   6.424013   6.598535   8.866464
                   36         37         38         39         40
    36  H    0.000000
    37  H    1.777562   0.000000
    38  H    2.679464   3.161631   0.000000
    39  H    3.841598   3.764727   1.775846   0.000000
    40  H    3.142023   2.532143   1.771729   1.779153   0.000000
    41  H    9.226416   9.050714   8.809233   7.453774   8.653275
    42  H    9.217564   9.014219   9.309222   8.141174   9.107266
    43  H    9.210905   9.470562   9.371690   8.472535   9.621196
    44  H    9.209473   9.495330   8.864985   7.804652   9.182713
    45  H    6.933826   8.444215   7.230136   7.707687   8.670640
    46  H    8.049924   9.409937   7.599457   7.725250   9.044517
    47  H    9.533998  10.263191  11.303237  11.480845  11.839040
    48  H    5.775022   6.147948   7.550112   7.597942   7.755277
    49  H    8.515938   9.959156   8.887220   9.220905  10.257067
    50  H    8.845198  10.045414   8.556850   8.421928   9.803821
                   41         42         43         44         45
    41  H    0.000000
    42  H    1.761598   0.000000
    43  H    2.991766   2.420580   0.000000
    44  H    2.419822   2.995380   1.762133   0.000000
    45  H    8.999292   9.083654   7.338589   7.226918   0.000000
    46  H    8.502633   8.977437   7.179192   6.570014   2.274102
    47  H    9.622481   8.367031   7.074859   8.519944   7.398750
    48  H    7.196272   6.167741   5.767587   6.849706   6.586852
    49  H    9.314892   9.291525   7.234404   7.259462   1.745182
    50  H    7.598672   7.971271   5.928260   5.413172   3.056240
                   46         47         48         49         50
    46  H    0.000000
    47  H    9.013934   0.000000
    48  H    8.039070   4.325694   0.000000
    49  H    2.682460   6.983501   7.147062   0.000000
    50  H    1.748516   8.265571   7.714295   2.635826   0.000000
 Stoichiometry    C18H22BrClN2O5Ti
 Framework group  C1[X(C18H22BrClN2O5Ti)]
 Deg. of freedom   144
 Full point group                 C1      NOp   1
 Largest Abelian subgroup         C1      NOp   1
 Largest concise Abelian subgroup C1      NOp   1
                         Standard orientation:                         
 ---------------------------------------------------------------------
 Center     Atomic      Atomic             Coordinates (Angstroms)
 Number     Number       Type             X           Y           Z
 ---------------------------------------------------------------------
      1         22           0        1.047780   -0.709436   -0.951334
      2          6           0        2.900777   -1.961275   -2.866858
      3          6           0        3.637716   -2.230837   -1.507765
      4          8           0        1.645135   -1.446480   -2.512372
      5          7           0        3.178106   -1.152772   -0.608299
      6          6           0        3.965668   -0.603691    0.254142
      7          6           0        3.574266    0.303465    1.299465
      8          6           0        2.201294    0.522305    1.626802
      9          6           0        4.609390    0.861393    2.073722
     10          6           0        1.917685    1.217817    2.848285
     11          6           0        4.350067    1.637700    3.191235
     12          6           0        2.993504    1.765957    3.550892
     13          8           0        1.251531    0.053415    0.839430
     14         17           0        0.407131   -2.810772    0.286922
     15          8           0       -0.713651   -0.777248   -1.503602
     16          6           0       -1.905137   -1.320109   -1.143785
     17          6           0       -2.181241   -1.178030    0.323679
     18          6           0       -3.349310   -1.728502    1.008044
     19          6           0       -3.211046   -2.080587    2.466230
     20          6           0       -4.347924   -2.542931    0.223860
     21          6           0        0.213971    2.082099   -1.517151
     22          6           0       -1.677251    3.096371   -1.022590
     23          7           0       -0.913996    1.947642   -0.852163
     24         35           0       -3.787037    0.396943    0.794602
     25          8           0       -2.791568    3.271300   -0.549523
     26          8           0        1.140884    1.193316   -1.597070
     27          6           0       -0.933056    4.130300   -1.898474
     28          6           0        0.379264    3.416404   -2.240979
     29          1           0        5.026526   -0.865299    0.239610
     30          1           0        5.632840    0.658279    1.766073
     31          1           0        2.767457    2.320721    4.450251
     32          1           0       -1.924547   -2.412603   -1.328779
     33          1           0       -2.732221   -0.889659   -1.728892
     34          1           0       -1.380743   -0.776480    0.934870
     35          1           0       -2.547462   -1.397678    2.997635
     36          1           0       -2.768666   -3.085370    2.514406
     37          1           0       -4.186504   -2.110009    2.959526
     38          1           0       -3.960892   -3.569905    0.164224
     39          1           0       -4.499835   -2.173635   -0.791599
     40          1           0       -5.311094   -2.577405    0.739484
     41          1           0       -1.543200    4.375305   -2.773628
     42          1           0       -0.796579    5.056435   -1.330768
     43          1           0        1.275562    3.929984   -1.875333
     44          1           0        0.524813    3.240241   -3.312602
     45          1           0        3.142158   -3.125895   -1.110295
     46          1           0        2.751477   -2.940869   -3.342933
     47          1           0        5.148984    2.080343    3.748639
     48          1           0        0.925744    1.293255    3.242318
     49          1           0        4.685699   -2.442092   -1.552515
     50          1           0        3.405156   -1.335577   -3.573260
 ---------------------------------------------------------------------
 Rotational constants (GHZ):      0.1691855      0.1003978      0.0926657
 Leave Link  202 at Wed Feb  3 21:41:02 2016, MaxMem= 34359738368 cpu:         0.1
 (Enter /share/sw/non-free/gaussian/g09/l301.exe)
 Standard basis: 6-31G(d) (6D, 7F)
 Ernie: Thresh=  0.10000D-02 Tol=  0.10000D-05 Strict=F.
 There are   507 symmetry adapted cartesian basis functions of A   symmetry.
 There are   504 symmetry adapted basis functions of A   symmetry.
   504 basis functions,  1027 primitive gaussians,   507 cartesian basis functions
   129 alpha electrons      129 beta electrons
       nuclear repulsion energy      4116.5167389591 Hartrees.
 IExCor= 4336 DFT=T Ex+Corr=M062X ExCW=0 ScaHFX=  0.540000
 ScaDFX=  1.000000  1.000000  1.000000  1.000000 ScalE2=  1.000000  1.000000
 IRadAn=      0 IRanWt=     -1 IRanGd=            0 ICorTp=0 IEmpDi=  4
 NAtoms=   50 NActive=   50 NUniq=   50 SFac= 1.00D+00 NAtFMM=   60 NAOKFM=F Big=F
 Integral buffers will be    131072 words long.
 Raffenetti 2 integral format.
 Two-electron integral symmetry is turned on.
 ------------------------------------------------------------------------------
 Polarizable Continuum Model (PCM)
 =================================
 Model                : PCM (using non-symmetric T matrix).
 Atomic radii         : UFF (Universal Force Field).
 Polarization charges : Total charges.
 Charge compensation  : None.
 Solution method      : On-the-fly selection.
 Cavity type          : Scaled VdW (van der Waals Surface) (Alpha=1.100).
 Cavity algorithm     : GePol (No added spheres)
                        Default sphere list used, NSphG=   50.
                        Lebedev-Laikov grids with approx.  5.0 points / Ang**2.
                        Smoothing algorithm: Karplus/York (Gamma=1.0000).
                        Polarization charges: spherical gaussians, with
                                              point-specific exponents (IZeta= 3).
                        Self-potential: point-specific (ISelfS= 7).
                        Self-field    : sphere-specific E.n sum rule (ISelfD= 2).
 1st derivatives      : Analytical E(r).r(x)/FMM algorithm (CHGder, D1EAlg=3).
                        Cavity 1st derivative terms included.
 Solvent              : Toluene, Eps=   2.374100 Eps(inf)=   2.238315
 ------------------------------------------------------------------------------
 GePol: Number of generator spheres                  =      50
 GePol: Total number of spheres                      =      50
 GePol: Number of exposed spheres                    =      49 ( 98.00%)
 GePol: Number of points                             =    3717
 GePol: Average weight of points                     =       0.13
 GePol: Minimum weight of points                     =   0.69D-11
 GePol: Maximum weight of points                     =    0.21616
 GePol: Number of points with low weight             =     225
 GePol: Fraction of low-weight points (<1% of avg)   =       6.05%
 GePol: Cavity surface area                          =    493.025 Ang**2
 GePol: Cavity volume                                =    566.003 Ang**3
 Leave Link  301 at Wed Feb  3 21:41:02 2016, MaxMem= 34359738368 cpu:         3.3
 (Enter /share/sw/non-free/gaussian/g09/l302.exe)
 NPDir=0 NMtPBC=     1 NCelOv=     1 NCel=       1 NClECP=     1 NCelD=      1
         NCelK=      1 NCelE2=     1 NClLst=     1 CellRange=     0.0.
 One-electron integrals computed using PRISM.
 NBasis=   504 RedAO= T EigKep=  4.28D-04  NBF=   504
 NBsUse=   504 1.00D-06 EigRej= -1.00D+00 NBFU=   504
 Precomputing XC quadrature grid using
 IXCGrd= 4 IRadAn=           0 IRanWt=          -1 IRanGd=           0 AccXCQ= 0.00D+00.
 Generated NRdTot=       0 NPtTot=           0 NUsed=           0 NTot=          32
 NSgBfM=   494   494   494   494   494 MxSgAt=    50 MxSgA2=    50.
 Leave Link  302 at Wed Feb  3 21:41:03 2016, MaxMem= 34359738368 cpu:        26.9
 (Enter /share/sw/non-free/gaussian/g09/l303.exe)
 DipDrv:  MaxL=1.
 Leave Link  303 at Wed Feb  3 21:41:03 2016, MaxMem= 34359738368 cpu:         2.9
 (Enter /share/sw/non-free/gaussian/g09/l401.exe)
 ExpMin= 3.20D-02 ExpMax= 5.74D+05 ExpMxC= 6.48D+03 IAcc=3 IRadAn=         5 AccDes= 0.00D+00
 Harris functional with IExCor= 1009 and IRadAn=       5 diagonalized for initial guess.
 HarFok:  IExCor= 1009 AccDes= 0.00D+00 IRadAn=         5 IDoV= 1 UseB2=F ITyADJ=14
 ICtDFT=  3500011 ScaDFX=  1.000000  1.000000  1.000000  1.000000
 FoFCou: FMM=F IPFlag=           0 FMFlag=      100000 FMFlg1=           0
         NFxFlg=           0 DoJE=T BraDBF=F KetDBF=T FulRan=T
         wScrn=  0.000000 ICntrl=     500 IOpCl=  0 I1Cent=   200000004 NGrid=           0
         NMat0=    1 NMatS0=      1 NMatT0=    0 NMatD0=    1 NMtDS0=    0 NMtDT0=    0
 Petite list used in FoFCou.
 Harris En= -5064.41155339064    
 JPrj=0 DoOrth=F DoCkMO=F.
 Leave Link  401 at Wed Feb  3 21:41:05 2016, MaxMem= 34359738368 cpu:        76.7
 (Enter /share/sw/non-free/gaussian/g09/l502.exe)
 Closed shell SCF:
 Using DIIS extrapolation, IDIIS=  1040.
 Integral symmetry usage will be decided dynamically.
 Keep R1 ints in memory in canonical form, NReq=8163975168.
 IVT=      809736 IEndB=      809736 NGot= 34359738368 MDV= 26261311203
 LenX= 26261311203 LenY= 26261053647
 Requested convergence on RMS density matrix=1.00D-08 within 128 cycles.
 Requested convergence on MAX density matrix=1.00D-06.
 Requested convergence on             energy=1.00D-06.
 No special actions if energy rises.
 FoFCou: FMM=F IPFlag=           0 FMFlag=           0 FMFlg1=           0
         NFxFlg=           0 DoJE=F BraDBF=F KetDBF=F FulRan=T
         wScrn=  0.000000 ICntrl=     600 IOpCl=  0 I1Cent=           0 NGrid=           0
         NMat0=    1 NMatS0= 127260 NMatT0=    0 NMatD0=    1 NMtDS0=    0 NMtDT0=    0
 Symmetry not used in FoFCou.

 Cycle   1  Pass 1  IDiag  1:
 Inv3:  Mode=1 IEnd=    41448267.
 Iteration    1 A*A^-1 deviation from unit magnitude is 9.10D-15 for    215.
 Iteration    1 A*A^-1 deviation from orthogonality  is 5.21D-15 for   3710    787.
 Iteration    1 A^-1*A deviation from unit magnitude is 8.88D-15 for    201.
 Iteration    1 A^-1*A deviation from orthogonality  is 2.34D-15 for   3555   1753.
 E= -5064.86624543690    
 DIIS: error= 8.62D-02 at cycle   1 NSaved=   1.
 NSaved= 1 IEnMin= 1 EnMin= -5064.86624543690     IErMin= 1 ErrMin= 8.62D-02
 ErrMax= 8.62D-02  0.00D+00 EMaxC= 1.00D-01 BMatC= 1.36D+00 BMatP= 1.36D+00
 IDIUse=3 WtCom= 1.38D-01 WtEn= 8.62D-01
 Coeff-Com:  0.100D+01
 Coeff-En:   0.100D+01
 Coeff:      0.100D+01
 Gap=     0.148 Goal=   None    Shift=    0.000
 GapD=    0.148 DampG=1.000 DampE=0.250 DampFc=0.2500 IDamp=-1.
 Damping current iteration by 2.50D-01
 RMSDP=4.89D-03 MaxDP=4.80D-01              OVMax= 4.73D-01

 Cycle   2  Pass 1  IDiag  1:
 E= -5064.98674830163     Delta-E=       -0.120502864735 Rises=F Damp=T
 DIIS: error= 6.31D-02 at cycle   2 NSaved=   2.
 NSaved= 2 IEnMin= 2 EnMin= -5064.98674830163     IErMin= 2 ErrMin= 6.31D-02
 ErrMax= 6.31D-02  0.00D+00 EMaxC= 1.00D-01 BMatC= 4.13D-01 BMatP= 1.36D+00
 IDIUse=3 WtCom= 3.69D-01 WtEn= 6.31D-01
 Coeff-Com: -0.267D+00 0.127D+01
 Coeff-En:   0.356D+00 0.644D+00
 Coeff:      0.126D+00 0.874D+00
 Gap=     0.109 Goal=   None    Shift=    0.000
 RMSDP=2.22D-03 MaxDP=9.19D-02 DE=-1.21D-01 OVMax= 4.90D-01

 Cycle   3  Pass 1  IDiag  1:
 E= -5065.51004004374     Delta-E=       -0.523291742107 Rises=F Damp=F
 DIIS: error= 1.22D-02 at cycle   3 NSaved=   3.
 NSaved= 3 IEnMin= 3 EnMin= -5065.51004004374     IErMin= 3 ErrMin= 1.22D-02
 ErrMax= 1.22D-02  0.00D+00 EMaxC= 1.00D-01 BMatC= 2.95D-01 BMatP= 4.13D-01
 IDIUse=3 WtCom= 8.78D-01 WtEn= 1.22D-01
 EnCoef did   100 forward-backward iterations
 Coeff-Com: -0.116D+00 0.582D+00 0.535D+00
 Coeff-En:   0.401D-01 0.120D-02 0.959D+00
 Coeff:     -0.974D-01 0.511D+00 0.586D+00
 Gap=     0.192 Goal=   None    Shift=    0.000
 RMSDP=1.62D-03 MaxDP=1.15D-01 DE=-5.23D-01 OVMax= 7.97D-02

 Cycle   4  Pass 1  IDiag  1:
 E= -5065.75214798063     Delta-E=       -0.242107936887 Rises=F Damp=F
 DIIS: error= 4.29D-03 at cycle   4 NSaved=   4.
 NSaved= 4 IEnMin= 4 EnMin= -5065.75214798063     IErMin= 4 ErrMin= 4.29D-03
 ErrMax= 4.29D-03  0.00D+00 EMaxC= 1.00D-01 BMatC= 4.72D-02 BMatP= 2.95D-01
 IDIUse=3 WtCom= 9.57D-01 WtEn= 4.29D-02
 Coeff-Com: -0.122D+00 0.236D+00 0.254D+00 0.633D+00
 Coeff-En:   0.000D+00 0.000D+00 0.000D+00 0.100D+01
 Coeff:     -0.117D+00 0.226D+00 0.243D+00 0.649D+00
 Gap=     0.173 Goal=   None    Shift=    0.000
 RMSDP=4.82D-04 MaxDP=2.84D-02 DE=-2.42D-01 OVMax= 3.79D-02

 Cycle   5  Pass 1  IDiag  1:
 E= -5065.78019387151     Delta-E=       -0.028045890876 Rises=F Damp=F
 DIIS: error= 1.94D-03 at cycle   5 NSaved=   5.
 NSaved= 5 IEnMin= 5 EnMin= -5065.78019387151     IErMin= 5 ErrMin= 1.94D-03
 ErrMax= 1.94D-03  0.00D+00 EMaxC= 1.00D-01 BMatC= 1.04D-02 BMatP= 4.72D-02
 IDIUse=3 WtCom= 9.81D-01 WtEn= 1.94D-02
 Coeff-Com: -0.930D-01 0.126D+00 0.529D-01 0.355D+00 0.559D+00
 Coeff-En:   0.000D+00 0.000D+00 0.000D+00 0.119D+00 0.881D+00
 Coeff:     -0.912D-01 0.123D+00 0.519D-01 0.351D+00 0.566D+00
 Gap=     0.164 Goal=   None    Shift=    0.000
 RMSDP=1.62D-04 MaxDP=8.87D-03 DE=-2.80D-02 OVMax= 1.26D-02

 Cycle   6  Pass 1  IDiag  1:
 E= -5065.78804970562     Delta-E=       -0.007855834110 Rises=F Damp=F
 DIIS: error= 9.80D-04 at cycle   6 NSaved=   6.
 NSaved= 6 IEnMin= 6 EnMin= -5065.78804970562     IErMin= 6 ErrMin= 9.80D-04
 ErrMax= 9.80D-04  0.00D+00 EMaxC= 1.00D-01 BMatC= 1.40D-03 BMatP= 1.04D-02
 IDIUse=3 WtCom= 9.90D-01 WtEn= 9.80D-03
 Coeff-Com: -0.559D-01 0.725D-01-0.114D-01 0.100D+00 0.223D+00 0.672D+00
 Coeff-En:   0.000D+00 0.000D+00 0.000D+00 0.000D+00 0.000D+00 0.100D+01
 Coeff:     -0.554D-01 0.718D-01-0.113D-01 0.990D-01 0.221D+00 0.675D+00
 Gap=     0.164 Goal=   None    Shift=    0.000
 RMSDP=5.03D-05 MaxDP=6.26D-03 DE=-7.86D-03 OVMax= 3.60D-03

 Cycle   7  Pass 1  IDiag  1:
 E= -5065.78902072764     Delta-E=       -0.000971022026 Rises=F Damp=F
 DIIS: error= 5.11D-04 at cycle   7 NSaved=   7.
 NSaved= 7 IEnMin= 7 EnMin= -5065.78902072764     IErMin= 7 ErrMin= 5.11D-04
 ErrMax= 5.11D-04  0.00D+00 EMaxC= 1.00D-01 BMatC= 4.64D-04 BMatP= 1.40D-03
 IDIUse=3 WtCom= 9.95D-01 WtEn= 5.11D-03
 Coeff-Com: -0.264D-01 0.345D-01-0.237D-01-0.133D-01-0.107D-02 0.289D+00
 Coeff-Com:  0.741D+00
 Coeff-En:   0.000D+00 0.000D+00 0.000D+00 0.000D+00 0.000D+00 0.000D+00
 Coeff-En:   0.100D+01
 Coeff:     -0.262D-01 0.343D-01-0.235D-01-0.132D-01-0.106D-02 0.288D+00
 Coeff:      0.742D+00
 Gap=     0.165 Goal=   None    Shift=    0.000
 RMSDP=2.73D-05 MaxDP=3.21D-03 DE=-9.71D-04 OVMax= 2.40D-03

 Cycle   8  Pass 1  IDiag  1:
 E= -5065.78936020823     Delta-E=       -0.000339480590 Rises=F Damp=F
 DIIS: error= 2.68D-04 at cycle   8 NSaved=   8.
 NSaved= 8 IEnMin= 8 EnMin= -5065.78936020823     IErMin= 8 ErrMin= 2.68D-04
 ErrMax= 2.68D-04  0.00D+00 EMaxC= 1.00D-01 BMatC= 1.06D-04 BMatP= 4.64D-04
 IDIUse=3 WtCom= 9.97D-01 WtEn= 2.68D-03
 Coeff-Com: -0.632D-02 0.885D-02-0.898D-02-0.194D-01-0.450D-01-0.698D-01
 Coeff-Com:  0.147D+00 0.993D+00
 Coeff-En:   0.000D+00 0.000D+00 0.000D+00 0.000D+00 0.000D+00 0.000D+00
 Coeff-En:   0.000D+00 0.100D+01
 Coeff:     -0.630D-02 0.883D-02-0.896D-02-0.193D-01-0.448D-01-0.696D-01
 Coeff:      0.147D+00 0.993D+00
 Gap=     0.165 Goal=   None    Shift=    0.000
 RMSDP=1.91D-05 MaxDP=2.66D-03 DE=-3.39D-04 OVMax= 1.89D-03

 Cycle   9  Pass 1  IDiag  1:
 E= -5065.78946195363     Delta-E=       -0.000101745398 Rises=F Damp=F
 DIIS: error= 7.05D-05 at cycle   9 NSaved=   9.
 NSaved= 9 IEnMin= 9 EnMin= -5065.78946195363     IErMin= 9 ErrMin= 7.05D-05
 ErrMax= 7.05D-05  0.00D+00 EMaxC= 1.00D-01 BMatC= 7.54D-06 BMatP= 1.06D-04
 IDIUse=1 WtCom= 1.00D+00 WtEn= 0.00D+00
 Coeff-Com:  0.158D-03 0.181D-03 0.934D-04-0.391D-02-0.176D-01-0.856D-01
 Coeff-Com: -0.986D-01 0.431D+00 0.774D+00
 Coeff:      0.158D-03 0.181D-03 0.934D-04-0.391D-02-0.176D-01-0.856D-01
 Coeff:     -0.986D-01 0.431D+00 0.774D+00
 Gap=     0.165 Goal=   None    Shift=    0.000
 RMSDP=6.72D-06 MaxDP=7.41D-04 DE=-1.02D-04 OVMax= 7.49D-04

 Cycle  10  Pass 1  IDiag  1:
 E= -5065.78946992446     Delta-E=       -0.000007970828 Rises=F Damp=F
 DIIS: error= 1.84D-05 at cycle  10 NSaved=  10.
 NSaved=10 IEnMin=10 EnMin= -5065.78946992446     IErMin=10 ErrMin= 1.84D-05
 ErrMax= 1.84D-05  0.00D+00 EMaxC= 1.00D-01 BMatC= 3.08D-07 BMatP= 7.54D-06
 IDIUse=1 WtCom= 1.00D+00 WtEn= 0.00D+00
 Coeff-Com:  0.508D-03-0.531D-03 0.119D-02 0.116D-02-0.166D-02-0.294D-01
 Coeff-Com: -0.639D-01 0.833D-01 0.376D+00 0.634D+00
 Coeff:      0.508D-03-0.531D-03 0.119D-02 0.116D-02-0.166D-02-0.294D-01
 Coeff:     -0.639D-01 0.833D-01 0.376D+00 0.634D+00
 Gap=     0.165 Goal=   None    Shift=    0.000
 RMSDP=1.40D-06 MaxDP=1.50D-04 DE=-7.97D-06 OVMax= 1.88D-04

 Cycle  11  Pass 1  IDiag  1:
 E= -5065.78947024042     Delta-E=       -0.000000315962 Rises=F Damp=F
 DIIS: error= 7.89D-06 at cycle  11 NSaved=  11.
 NSaved=11 IEnMin=11 EnMin= -5065.78947024042     IErMin=11 ErrMin= 7.89D-06
 ErrMax= 7.89D-06  0.00D+00 EMaxC= 1.00D-01 BMatC= 6.89D-08 BMatP= 3.08D-07
 IDIUse=1 WtCom= 1.00D+00 WtEn= 0.00D+00
 Coeff-Com:  0.328D-03-0.453D-03 0.518D-03 0.957D-03 0.216D-02 0.181D-02
 Coeff-Com: -0.933D-02-0.337D-01 0.260D-01 0.256D+00 0.756D+00
 Coeff:      0.328D-03-0.453D-03 0.518D-03 0.957D-03 0.216D-02 0.181D-02
 Coeff:     -0.933D-02-0.337D-01 0.260D-01 0.256D+00 0.756D+00
 Gap=     0.165 Goal=   None    Shift=    0.000
 RMSDP=6.51D-07 MaxDP=5.06D-05 DE=-3.16D-07 OVMax= 9.94D-05

 Cycle  12  Pass 1  IDiag  1:
 E= -5065.78947031999     Delta-E=       -0.000000079568 Rises=F Damp=F
 DIIS: error= 4.13D-06 at cycle  12 NSaved=  12.
 NSaved=12 IEnMin=12 EnMin= -5065.78947031999     IErMin=12 ErrMin= 4.13D-06
 ErrMax= 4.13D-06  0.00D+00 EMaxC= 1.00D-01 BMatC= 1.93D-08 BMatP= 6.89D-08
 IDIUse=1 WtCom= 1.00D+00 WtEn= 0.00D+00
 Coeff-Com:  0.105D-03-0.167D-03-0.276D-04-0.622D-04 0.679D-03 0.479D-02
 Coeff-Com:  0.821D-02-0.172D-01-0.522D-01-0.489D-01 0.160D+00 0.945D+00
 Coeff:      0.105D-03-0.167D-03-0.276D-04-0.622D-04 0.679D-03 0.479D-02
 Coeff:      0.821D-02-0.172D-01-0.522D-01-0.489D-01 0.160D+00 0.945D+00
 Gap=     0.165 Goal=   None    Shift=    0.000
 RMSDP=3.65D-07 MaxDP=2.98D-05 DE=-7.96D-08 OVMax= 5.51D-05

 Cycle  13  Pass 1  IDiag  1:
 E= -5065.78947034453     Delta-E=       -0.000000024540 Rises=F Damp=F
 DIIS: error= 1.45D-06 at cycle  13 NSaved=  13.
 NSaved=13 IEnMin=13 EnMin= -5065.78947034453     IErMin=13 ErrMin= 1.45D-06
 ErrMax= 1.45D-06  0.00D+00 EMaxC= 1.00D-01 BMatC= 2.67D-09 BMatP= 1.93D-08
 IDIUse=1 WtCom= 1.00D+00 WtEn= 0.00D+00
 Coeff-Com:  0.340D-04-0.555D-04-0.866D-04-0.219D-03-0.339D-04 0.218D-02
 Coeff-Com:  0.583D-02-0.313D-02-0.320D-01-0.676D-01-0.372D-01 0.505D+00
 Coeff-Com:  0.627D+00
 Coeff:      0.340D-04-0.555D-04-0.866D-04-0.219D-03-0.339D-04 0.218D-02
 Coeff:      0.583D-02-0.313D-02-0.320D-01-0.676D-01-0.372D-01 0.505D+00
 Coeff:      0.627D+00
 Gap=     0.165 Goal=   None    Shift=    0.000
 RMSDP=1.39D-07 MaxDP=9.81D-06 DE=-2.45D-08 OVMax= 1.85D-05

 Cycle  14  Pass 1  IDiag  1:
 E= -5065.78947034786     Delta-E=       -0.000000003332 Rises=F Damp=F
 DIIS: error= 3.99D-07 at cycle  14 NSaved=  14.
 NSaved=14 IEnMin=14 EnMin= -5065.78947034786     IErMin=14 ErrMin= 3.99D-07
 ErrMax= 3.99D-07  0.00D+00 EMaxC= 1.00D-01 BMatC= 1.79D-10 BMatP= 2.67D-09
 IDIUse=1 WtCom= 1.00D+00 WtEn= 0.00D+00
 Coeff-Com:  0.243D-05-0.232D-05-0.227D-04-0.716D-04-0.136D-03-0.219D-05
 Coeff-Com:  0.688D-03 0.188D-02-0.289D-02-0.163D-01-0.411D-01 0.291D-01
 Coeff-Com:  0.231D+00 0.798D+00
 Coeff:      0.243D-05-0.232D-05-0.227D-04-0.716D-04-0.136D-03-0.219D-05
 Coeff:      0.688D-03 0.188D-02-0.289D-02-0.163D-01-0.411D-01 0.291D-01
 Coeff:      0.231D+00 0.798D+00
 Gap=     0.165 Goal=   None    Shift=    0.000
 RMSDP=4.70D-08 MaxDP=2.93D-06 DE=-3.33D-09 OVMax= 6.43D-06

 Cycle  15  Pass 1  IDiag  1:
 E= -5065.78947034827     Delta-E=       -0.000000000407 Rises=F Damp=F
 DIIS: error= 9.95D-08 at cycle  15 NSaved=  15.
 NSaved=15 IEnMin=15 EnMin= -5065.78947034827     IErMin=15 ErrMin= 9.95D-08
 ErrMax= 9.95D-08  0.00D+00 EMaxC= 1.00D-01 BMatC= 2.34D-11 BMatP= 1.79D-10
 IDIUse=1 WtCom= 1.00D+00 WtEn= 0.00D+00
 Coeff-Com: -0.325D-05 0.590D-05 0.228D-05-0.120D-05-0.591D-04-0.324D-03
 Coeff-Com: -0.571D-03 0.130D-02 0.337D-02 0.277D-02-0.123D-01-0.571D-01
 Coeff-Com:  0.109D-01 0.336D+00 0.716D+00
 Coeff:     -0.325D-05 0.590D-05 0.228D-05-0.120D-05-0.591D-04-0.324D-03
 Coeff:     -0.571D-03 0.130D-02 0.337D-02 0.277D-02-0.123D-01-0.571D-01
 Coeff:      0.109D-01 0.336D+00 0.716D+00
 Gap=     0.165 Goal=   None    Shift=    0.000
 RMSDP=1.61D-08 MaxDP=8.98D-07 DE=-4.07D-10 OVMax= 1.81D-06

 Cycle  16  Pass 1  IDiag  1:
 E= -5065.78947034834     Delta-E=       -0.000000000075 Rises=F Damp=F
 DIIS: error= 4.51D-08 at cycle  16 NSaved=  16.
 NSaved=16 IEnMin=16 EnMin= -5065.78947034834     IErMin=16 ErrMin= 4.51D-08
 ErrMax= 4.51D-08  0.00D+00 EMaxC= 1.00D-01 BMatC= 5.63D-12 BMatP= 2.34D-11
 IDIUse=1 WtCom= 1.00D+00 WtEn= 0.00D+00
 Coeff-Com: -0.239D-05 0.358D-05 0.378D-05 0.109D-04 0.492D-06-0.114D-03
 Coeff-Com: -0.311D-03 0.140D-03 0.159D-02 0.347D-02 0.185D-02-0.242D-01
 Coeff-Com: -0.314D-01 0.327D-03 0.273D+00 0.776D+00
[...]
    34  H    4.700407   4.298935   3.071829   5.486933   3.515324
    35  H    6.113611   5.439069   4.216101   6.315639   4.088049
    36  H    7.155506   6.760795   5.616414   7.786823   5.734259
    37  H    7.854739   7.154477   5.861680   7.992602   5.552829
    38  H    8.403765   8.144854   6.913507   9.320236   7.106287
    39  H    8.337882   7.962390   6.660821   9.090257   6.725986
    40  H    8.980346   8.442631   7.085638   9.453829   6.926511
    41  H    6.604739   5.720657   5.177758   5.839024   4.718607
    42  H    5.744084   4.600180   4.086394   4.487795   3.345102
    43  H    3.836519   3.091948   3.171054   3.175264   3.308146
    44  H    5.035841   4.600938   4.515652   4.891768   4.718763
    45  H    3.041246   4.332932   4.783748   5.479205   6.183809
    46  H    4.394481   5.635956   6.003572   6.761718   7.365632
    47  H    4.614368   3.412277   3.905467   2.148441   3.406025
    48  H    4.627940   3.399517   2.135513   3.873172   1.086801
    49  H    2.559523   4.007500   4.895257   4.845187   6.254055
    50  H    3.530647   4.616178   5.103430   5.592411   6.374766
                   11         12         13         14         15
    11  C    0.000000
    12  C    1.402717   0.000000
    13  O    4.135025   3.614061   0.000000
    14  Cl   6.839653   6.439515   2.961642   0.000000
    15  O    6.832139   6.219464   2.960800   2.952765   0.000000
    16  C    7.421867   6.601695   3.489591   3.145097   1.379372
    17  C    6.629318   5.678087   2.897004   3.060533   2.390183
    18  C    7.434073   6.348331   4.062827   3.975195   3.766089
    19  C    7.243425   6.173993   4.328961   4.256824   4.868429
    20  C    8.879018   7.762961   5.419913   4.912199   4.428144
    21  C    4.607497   4.159129   2.869189   5.161342   3.268064
    22  C    4.924052   3.978250   3.860309   6.321640   4.338837
    23  N    5.048768   4.243372   2.902833   5.100806   3.001669
    24  Br   6.367416   5.145931   3.699763   4.969612   3.732006
    25  O    5.540603   4.388699   4.522886   6.838092   4.930302
    26  O    4.953580   4.743554   2.653155   4.443239   2.825265
    27  C    4.463401   3.842254   4.537370   7.223371   5.345270
    28  C    4.199197   3.952598   3.976690   6.536732   4.784923
    29  H    4.033863   4.826323   3.944774   5.217937   5.966284
    30  H    2.147760   3.393698   4.531162   6.721298   7.070341
    31  H    2.158726   1.086540   4.485798   7.288490   6.937127
    32  H    8.234443   7.464094   4.162247   2.922637   2.042433
    33  H    7.973782   7.064666   4.288232   4.239229   2.040392
    34  H    5.742984   4.891295   1.958050   2.546188   2.550449
    35  H    6.237268   5.209616   3.639310   4.057800   4.837468
    36  H    7.873787   6.920739   4.762588   3.998387   5.151474
    37  H    7.774927   6.611931   5.236952   5.347628   5.788491
    38  H    9.458313   8.425666   5.800449   4.700787   4.689839
    39  H    9.130954   8.025234   5.602990   5.199163   4.103946
    40  H    9.333370   8.133027   6.178221   5.873892   5.433389
    41  H    5.433812   4.850851   5.546471   8.116426   5.985711
    42  H    3.833760   3.188474   4.783654   7.641502   6.085208
    43  H    3.308853   3.364324   3.878283   6.558346   5.269769
    44  H    5.068816   4.977718   4.826188   7.151078   5.208531
    45  H    6.722115   7.010177   4.265087   3.388018   4.871967
    46  H    7.975133   8.227432   5.376093   4.618752   4.815273
    47  H    1.084432   2.164307   5.219375   7.902399   7.890513
    48  H    3.423562   2.169799   2.554606   5.178311   4.686808
    49  H    6.200656   6.793877   4.789822   4.883822   5.741880
    50  H    6.752481   7.080771   4.751738   5.049805   4.597493
                   16         17         18         19         20
    16  C    0.000000
    17  C    1.513624   0.000000
    18  C    2.620082   1.450818   0.000000
    19  C    3.909101   2.532994   1.500722   0.000000
    20  C    3.070499   2.564570   1.500651   2.564105   0.000000
    21  C    4.172199   4.284659   5.565444   6.343743   6.588316
    22  C    4.634877   4.372882   5.233687   5.985410   6.152546
    23  N    3.494508   3.456033   4.586405   5.462277   5.534435
    24  Br   2.994876   2.030699   2.112985   2.976942   3.003949
    25  O    4.892143   4.444494   4.984704   5.697663   5.781971
    26  O    4.018025   4.337347   5.745221   6.507882   6.766784
    27  C    5.906139   5.712933   6.665235   7.311170   7.654059
    28  C    5.659291   5.658862   6.841582   7.505468   7.897930
    29  H    6.978814   6.734534   7.900900   7.913957   9.241265
    30  H    7.930734   7.392562   8.404749   8.273338   9.845766
    31  H    7.183108   6.177167   6.671990   6.442787   8.029366
    32  H    1.103015   2.097028   2.839966   4.026179   2.992804
    33  H    1.096320   2.162330   2.941708   4.396446   3.012092
    34  H    2.219720   1.084398   2.148476   2.644290   3.494061
    35  H    4.143112   2.657829   2.159444   1.091609   3.498221
    36  H    4.196769   3.019882   2.102979   1.097058   2.840697
    37  H    4.748064   3.402543   2.149973   1.091838   2.794228
    38  H    3.362416   3.032682   2.103554   2.857537   1.097477
    39  H    2.748639   2.734643   2.169285   3.502437   1.090764
    40  H    4.093006   3.431879   2.146580   2.772417   1.091664
    41  H    6.523367   6.469077   7.383254   8.133570   8.233980
    42  H    6.571570   6.151334   6.985258   7.429115   8.071366
    43  H    6.186775   6.033508   7.209300   7.686085   8.396142
    44  H    6.196627   6.417732   7.658653   8.427985   8.619488
    45  H    5.823621   6.009049   7.172546   7.381176   8.205732
    46  H    6.009554   6.730632   8.056874   8.668324   8.845477
    47  H    8.482389   7.673319   8.426988   8.179674   9.867593
    48  H    4.744186   3.681891   4.250441   4.255254   5.622552
    49  H    6.886118   7.062042   8.327894   8.557561   9.458546
    50  H    5.942462   6.555011   7.975633   8.620704   8.900816
                   21         22         23         24         25
    21  C    0.000000
    22  C    2.183516   0.000000
    23  N    1.314026   1.382511   0.000000
    24  Br   4.269176   3.325783   3.064200   0.000000
    25  O    3.350616   1.222299   2.301816   2.894903   0.000000
    26  O    1.280884   3.422034   2.301788   4.881702   4.534696
    27  C    2.367831   1.534203   2.415579   4.813062   2.440270
    28  C    1.520553   2.391459   2.394712   5.301853   3.574544
    29  H    4.934436   6.622332   5.871365   7.594990   7.608742
    30  H    5.098507   6.188767   5.930836   7.648666   7.058352
    31  H    4.825284   4.157501   4.719295   5.310256   4.310099
    32  H    5.158958   5.734449   4.575396   3.830233   5.966860
    33  H    4.384023   4.504256   3.529395   2.930228   4.615708
    34  H    3.961143   4.305879   3.361293   2.499953   4.543899
    35  H    5.858297   5.579280   5.098455   3.016397   5.395651
    36  H    7.002547   6.891796   6.226471   3.940203   6.697909
    37  H    7.074017   6.412928   6.088390   3.294597   5.927926
    38  H    7.214861   7.030919   6.275079   3.957246   6.764528
    39  H    6.312010   5.873855   5.236879   3.050269   5.530113
    40  H    7.316865   6.599319   6.178525   3.343165   6.041954
    41  H    3.127219   2.159419   3.122461   5.448029   2.803240
    42  H    3.139389   2.153220   3.159597   5.118037   2.735056
    43  H    2.137824   3.133245   3.107905   5.794089   4.249324
    44  H    2.156832   3.182005   3.123136   6.148934   4.340697
    45  H    5.735354   7.617431   6.416118   7.600061   8.526182
    46  H    5.715251   7.808807   6.538512   8.257133   8.831844
    47  H    5.501028   5.679755   5.963075   7.289892   6.238248
    48  H    3.491029   2.926159   2.968389   2.996667   3.066831
    49  H    5.635397   7.657522   6.604145   8.357358   8.704352
    50  H    4.446089   6.623764   5.493034   7.722416   7.749009
                   26         27         28         29         30
    26  O    0.000000
    27  C    3.591297   0.000000
    28  C    2.426853   1.525306   0.000000
    29  H    4.195867   6.377328   5.185199   0.000000
    30  H    4.934041   5.626886   4.783677   2.378812   0.000000
    31  H    5.585004   4.014346   4.486687   5.893704   4.293009
    32  H    4.831286   6.990432   6.668056   7.432155   8.603523
    33  H    4.446472   5.848481   5.787737   7.825857   8.631253
    34  H    3.913265   5.474431   5.278334   5.768848   6.416235
    35  H    6.030795   6.771821   6.918124   7.066497   7.285192
    36  H    6.988384   8.191430   8.242473   8.097215   8.692796
    37  H    7.375036   7.764600   8.142019   8.832423   8.995523
    38  H    7.217943   8.498677   8.599452   9.438374  10.253887
    39  H    6.518524   7.380423   7.627477   9.422603  10.066931
    40  H    7.621896   8.118370   8.531025  10.045136  10.471619
    41  H    4.317603   1.093178   2.209060   7.315322   6.556911
    42  H    4.296005   1.093037   2.202437   6.417324   5.283550
    43  H    2.701822   2.204254   1.095591   4.393053   3.739688
    44  H    2.762439   2.215946   1.093456   5.613524   5.368281
    45  H    4.580610   7.895251   6.681931   3.271934   5.557413
    46  H    4.435955   7.982321   6.628994   4.635737   6.815909
    47  H    5.897925   5.031993   4.871029   4.713388   2.481753
    48  H    4.157993   3.659362   3.973445   5.547219   4.960860
    49  H    4.502367   7.580026   6.210788   2.293997   4.633942
    50  H    3.214588   6.543579   5.099946   3.787209   5.633413
                   31         32         33         34         35
    31  H    0.000000
    32  H    8.080330   0.000000
    33  H    7.536512   1.782660   0.000000
    34  H    5.499014   2.760557   3.051131   0.000000
    35  H    5.516032   4.418946   4.748544   2.338151   0.000000
    36  H    7.279505   4.030927   4.806765   3.084497   1.772668
    37  H    6.711456   4.893275   5.056642   3.618470   1.789669
    38  H    8.774428   2.912052   3.490839   3.857190   3.843220
    39  H    8.303309   2.761954   2.336851   3.798175   4.314383
    40  H    8.266209   4.082785   3.928123   4.282812   3.768133
    41  H    4.903543   7.615031   6.307480   6.357258   7.675273
    42  H    3.165817   7.644918   6.587832   5.803954   6.785858
    43  H    4.018353   7.143110   6.473216   5.469372   6.971476
    44  H    5.503040   7.171512   6.251635   6.107840   7.893733
    45  H    8.073344   5.811033   6.805103   5.270703   6.878564
    46  H    9.264710   6.015304   6.752955   6.278995   8.331354
    47  H    2.490818   9.309850   9.001042   6.801162   7.158346
    48  H    2.498121   5.621540   5.136841   3.075450   3.443824
    49  H    7.878934   7.091892   7.766808   6.260328   7.920808
    50  H    8.093495   6.268401   6.579511   6.038326   8.158958
                   36         37         38         39         40
    36  H    0.000000
    37  H    1.775555   0.000000
    38  H    2.696480   3.197626   0.000000
    39  H    3.845601   3.773068   1.776404   0.000000
    40  H    3.138478   2.556820   1.771210   1.782252   0.000000
    41  H    9.039520   8.531748   9.119184   7.849057   8.660432
    42  H    8.343842   7.806536   8.935559   7.919304   8.449459
    43  H    8.379771   8.348954   9.047980   8.245953   9.030138
    44  H    9.131384   9.090758   9.295743   8.246338   9.295277
    45  H    7.201254   8.454932   8.059805   8.346417   9.180288
    46  H    8.581157   9.742986   8.740090   8.686031   9.902804
    47  H    8.827399   8.641668  10.472748  10.127061  10.270442
    48  H    5.115977   4.706135   6.344683   5.879198   5.988945
    49  H    8.541150   9.593886   9.461682   9.528692  10.407816
    50  H    8.752083   9.643641   9.013471   8.690095   9.903532
                   41         42         43         44         45
    41  H    0.000000
    42  H    1.768044   0.000000
    43  H    3.000048   2.398099   0.000000
    44  H    2.425949   2.980931   1.769153   0.000000
    45  H    8.775101   8.278781   6.352340   7.001537   0.000000
    46  H    8.636353   8.618660   6.553154   6.585419   2.436105
    47  H    5.895270   4.256994   3.938774   5.651851   7.618804
    48  H    4.658031   3.444256   3.915583   5.054887   6.729488
    49  H    8.410123   7.904154   5.704995   6.382693   1.790116
    50  H    7.157087   7.165521   4.978753   4.962898   3.060957
                   46         47         48         49         50
    46  H    0.000000
    47  H    8.858789   0.000000
    48  H    7.825699   4.322368   0.000000
    49  H    2.661000   6.950263   7.004977   0.000000
    50  H    1.782053   7.574970   6.929774   2.462650   0.000000
 Stoichiometry    C18H22BrClN2O5Ti
 Framework group  C1[X(C18H22BrClN2O5Ti)]
 Deg. of freedom   144
 Full point group                 C1      NOp   1
 RotChk:  IX=0 Diff= 1.35D-15
 Largest Abelian subgroup         C1      NOp   1
 Largest concise Abelian subgroup C1      NOp   1
                         Standard orientation:                         
 ---------------------------------------------------------------------
 Center     Atomic      Atomic             Coordinates (Angstroms)
 Number     Number       Type             X           Y           Z
 ---------------------------------------------------------------------
      1         22           0        0.995367   -1.430251   -0.569086
      2          6           0        3.512144   -2.626888   -1.252812
      3          6           0        3.777068   -2.365785    0.232430
      4          8           0        2.128140   -2.512926   -1.464317
      5          7           0        2.913835   -1.243775    0.556547
      6          6           0        3.348493   -0.209171    1.169708
      7          6           0        2.534970    0.960898    1.450859
      8          6           0        1.133858    0.939649    1.246342
      9          6           0        3.148714    2.127658    1.934823
     10          6           0        0.392070    2.104176    1.525483
     11          6           0        2.411849    3.271160    2.189271
     12          6           0        1.025059    3.248536    1.979710
     13          8           0        0.512323   -0.128855    0.799979
     14         17           0        0.065149   -3.047601    1.028621
     15          8           0       -0.541888   -1.658658   -1.505380
     16          6           0       -1.860147   -1.810595   -1.128851
     17          6           0       -2.143574   -1.106166    0.180541
     18          6           0       -3.421005   -1.144218    0.867269
     19          6           0       -3.427276   -1.011590    2.362105
     20          6           0       -4.615020   -1.789411    0.226949
     21          6           0        0.901959    1.268211   -1.675629
     22          6           0       -0.761826    2.674542   -1.528002
     23          7           0       -0.402134    1.339645   -1.531053
     24         35           0       -2.993519    0.727751   -0.014601
     25          8           0       -1.891652    3.078620   -1.295135
     26          8           0        1.591379    0.191163   -1.602615
     27          6           0        0.440451    3.587153   -1.802682
     28          6           0        1.602981    2.602465   -1.876665
     29          1           0        4.394571   -0.173141    1.498143
     30          1           0        4.224594    2.123073    2.095853
     31          1           0        0.436137    4.140875    2.173290
     32          1           0       -2.083941   -2.874827   -0.944542
     33          1           0       -2.528961   -1.450083   -1.919190
     34          1           0       -1.287037   -0.900924    0.813107
     35          1           0       -2.558845   -0.458344    2.724540
     36          1           0       -3.383400   -2.026732    2.775743
     37          1           0       -4.346741   -0.536676    2.710171
     38          1           0       -4.603307   -2.848172    0.515640
     39          1           0       -4.594490   -1.726486   -0.861805
     40          1           0       -5.541120   -1.347984    0.600061
     41          1           0        0.269493    4.144532   -2.727419
     42          1           0        0.531676    4.308596   -0.986637
     43          1           0        2.337905    2.733590   -1.074784
     44          1           0        2.141544    2.604896   -2.828290
     45          1           0        3.441807   -3.228652    0.818702
     46          1           0        3.853771   -3.624130   -1.549522
     47          1           0        2.898233    4.171071    2.549250
     48          1           0       -0.677014    2.068180    1.333386
     49          1           0        4.833457   -2.165219    0.448656
     50          1           0        4.036286   -1.879534   -1.863821
 ---------------------------------------------------------------------
 Rotational constants (GHZ):      0.1832303      0.1425877      0.1076613
 Leave Link  202 at Thu Feb  4 02:03:27 2016, MaxMem= 34359738368 cpu:         0.1
 (Enter /share/sw/non-free/gaussian/g09/l9999.exe)
 1\1\GINC-SH-1-14\FOpt\RM062X\6-31G(d)\C18H22Br1Cl1N2O5Ti1\EKWAN16\04-F
 eb-2016\0\\#p m062x/6-31g* scrf=(pcm,solvent=toluene) opt=modredundant
  pop=none geom=connect\\Title Card Required\\0,1\Ti,0.0991455982,-1.84
 43599456,-0.5890450526\C,-2.5886100846,-2.8441479896,-0.4891262649\C,-
 2.8574288472,-1.5347722037,-1.2358354357\O,-1.2065839793,-3.0893108426
 ,-0.5446893847\N,-1.7777121062,-0.6580315203,-0.8179039196\C,-1.993911
 2453,0.5289899933,-0.3941852498\C,-0.9495470892,1.4110816093,0.0968789
 712\C,0.4179835482,1.0803757224,-0.0640191336\C,-1.3036633365,2.609560
 3738,0.737568245\C,1.3914152168,1.9657459248,0.4388141855\C,-0.3386346
 019,3.4633055176,1.2426914363\C,1.014894057,3.1296170404,1.0870378994\
 O,0.8002709138,-0.0265034907,-0.6606113463\Cl,0.5593769827,-1.82426337
 79,-3.0018397621\O,1.5866972468,-2.8723853042,-0.4396389743\C,2.816238
 3256,-2.8461057379,-1.0643027543\C,3.1900719936,-1.4411283974,-1.48542
 44684\C,4.3910947462,-1.1041259435,-2.2262671138\C,4.3563003864,0.0962
 681372,-3.126272464\C,5.4358041272,-2.1448639256,-2.5044755659\C,0.857
 3565111,-0.9088748051,2.0689320673\C,2.7888117084,-0.0709529153,2.6478
 199587\N,2.1350401088,-0.9071954481,1.7620338869\Br,4.4437448948,-0.48
 25662263,-0.2074563757\O,3.968592064,0.235298675,2.556483689\O,-0.0619
 679995,-1.4805147788,1.3842909648\C,1.8405112592,0.4643385909,3.728545
 5608\C,0.4890995319,-0.1007448467,3.303190598\H,-3.0186819924,0.920110
 6866,-0.3764303795\H,-2.3587078005,2.8527546484,0.8434338052\H,1.78171
 98039,3.7904993391,1.4817311021\H,2.7826788926,-3.4334986478,-1.997301
 262\H,3.5864112758,-3.2769580387,-0.4138285353\H,2.3737184206,-0.73451
 25601,-1.58632438\H,3.6205076321,0.8313654571,-2.7948328161\H,4.062695
 0204,-0.2565946353,-4.1226755327\H,5.342152697,0.5595415249,-3.2009899
 185\H,5.1694857999,-2.6232496805,-3.4556207255\H,5.4819632836,-2.91258
 74688,-1.7310182244\H,6.4192889611,-1.6856818268,-2.6212691181\H,2.177
 739223,0.1209288147,4.7100670588\H,1.8773241579,1.556742151,3.72306651
 12\H,-0.2339185222,0.6691476487,3.0119354091\H,0.0111451232,-0.7452131
 425,4.0460680696\H,-2.7558287321,-1.7034966854,-2.3137334205\H,-3.1339
 233373,-3.6797507987,-0.9403909585\H,-0.6237799482,4.3792952941,1.7483
 083476\H,2.432083013,1.6735596785,0.3257885873\H,-3.8494074677,-1.1180
 769912,-1.0230417115\H,-2.8990422849,-2.7475225326,0.5601066044\\Versi
 on=ES64L-G09RevD.01\HF=-5065.8303222\RMSD=9.769e-09\RMSF=8.464e-04\Dip
 ole=-0.6842123,0.5513011,1.6122258\PG=C01 [X(C18H22Br1Cl1N2O5Ti1)]\\@


 We're simply so accustomed to the marvels of everyday thought
 that we never wonder about it.
 -- Marvin Minsky in "Why people think computers are smart"
 Job cpu time:       1 days  6 hours 49 minutes 34.5 seconds.
 File lengths (MBytes):  RWF=    523 Int=      0 D2E=      0 Chk=     20 Scr=      1
 Normal termination of Gaussian 09 at Thu Feb  4 02:03:27 2016.
